<event>
 6    1  0.1273846E-001  0.3000000E+03  0.7818608E-02  0.1093470E+00
         21   -1    0    0  501  502  0.00000000000E+00  0.00000000000E+00  0.15627255758E+01  0.15627255758E+01  0.00000000000E+00 0. -1.
         13   -1    0    0    0    0 -0.00000000000E+00 -0.00000000000E+00 -0.10000000000E+04  0.10000000000E+04  0.00000000000E+00 0.  1.
    9000005    2    1    2  501    0 -0.60126924497E+01 -0.36318689077E+02 -0.67948652389E+03  0.68049453825E+03  0.39598980336E+01 0.  0.
         13    1    3    3    0    0 -0.57817690555E+01 -0.24135847564E+02 -0.46654217830E+03  0.46720185373E+03  0.00000000000E+00 0.  1.
          3    1    3    3  501    0 -0.23092339422E+00 -0.12182841513E+02 -0.21294434558E+03  0.21329268452E+03  0.00000000000E+00 0.  1.
         -1    1    1    2    0  502  0.60126924497E+01  0.36318689077E+02 -0.31895075054E+03  0.32106818733E+03  0.00000000000E+00 0. -1.
<mgrwt>
<rscale>  1 0.30000000E+03</rscale>
<asrwt>0</asrwt>
<pdfrwt beam="1">  1       21 0.56826504E-02 0.30000000E+03</pdfrwt>
<pdfrwt beam="2">0</pdfrwt>
<totfact> 0.23139220E+04</totfact>
</mgrwt>
</event>
<event>
 6    1  0.1273846E-001  0.3000000E+03  0.7818608E-02  0.1093470E+00
         21   -1    0    0  501  502  0.00000000000E+00  0.00000000000E+00  0.13347540279E+01  0.13347540279E+01  0.00000000000E+00 0. -1.
         13   -1    0    0    0    0 -0.00000000000E+00 -0.00000000000E+00 -0.10000000000E+04  0.10000000000E+04  0.00000000000E+00 0.  1.
    9000005    2    1    2  501    0  0.27141759392E+02  0.21960257393E+02 -0.64432082264E+03  0.64527450863E+03  0.33077167260E+01 0.  0.
         13    1    3    3    0    0  0.25578347796E+01  0.10322561438E+01 -0.57783616342E+02  0.57849411311E+02  0.00000000000E+00 0.  1.
          3    1    3    3  501    0  0.24583924612E+02  0.20928001250E+02 -0.58653720630E+03  0.58742509732E+03  0.00000000000E+00 0.  1.
         -1    1    1    2    0  502 -0.27141759392E+02 -0.21960257393E+02 -0.35434442333E+03  0.35606024540E+03  0.00000000000E+00 0. -1.
<mgrwt>
<rscale>  1 0.30000000E+03</rscale>
<asrwt>0</asrwt>
<pdfrwt beam="1">  1       21 0.48536612E-02 0.30000000E+03</pdfrwt>
<pdfrwt beam="2">0</pdfrwt>
<totfact> 0.30299758E+04</totfact>
</mgrwt>
</event>
<event>
 6    1  0.1273846E-001  0.3000000E+03  0.7818608E-02  0.1093470E+00
         21   -1    0    0  501  502  0.00000000000E+00  0.00000000000E+00  0.12238204421E+01  0.12238204421E+01  0.00000000000E+00 0. -1.
         13   -1    0    0    0    0 -0.00000000000E+00 -0.00000000000E+00 -0.10000000000E+04  0.10000000000E+04  0.00000000000E+00 0.  1.
    9000005    2    1    2  501    0 -0.88372224629E+01  0.32944691369E+02 -0.60643295407E+03  0.60740069292E+03  0.33503401700E+01 0.  0.
         13    1    3    3    0    0 -0.77804820346E+01  0.31688913944E+02 -0.57881895267E+03  0.57973796075E+03  0.00000000000E+00 0.  1.
          1    1    3    3  501    0 -0.10567404283E+01  0.12557774251E+01 -0.27614001406E+02  0.27662732167E+02  0.00000000000E+00 0.  1.
         -1    1    1    2    0  502  0.88372224629E+01 -0.32944691369E+02 -0.39234322548E+03  0.39382312753E+03  0.00000000000E+00 0. -1.
<mgrwt>
<rscale>  1 0.30000000E+03</rscale>
<asrwt>0</asrwt>
<pdfrwt beam="1">  1       21 0.44502655E-02 0.30000000E+03</pdfrwt>
<pdfrwt beam="2">0</pdfrwt>
<totfact> 0.35113902E+04</totfact>
</mgrwt>
</event>
<event>
 6    1  0.1273846E-001  0.3000000E+03  0.7818608E-02  0.1093470E+00
         21   -1    0    0  501  502  0.00000000000E+00  0.00000000000E+00  0.21450078207E+01  0.21450078207E+01  0.00000000000E+00 0. -1.
         13   -1    0    0    0    0 -0.00000000000E+00 -0.00000000000E+00 -0.10000000000E+04  0.10000000000E+04  0.00000000000E+00 0.  1.
    9000005    2    1    2  501    0  0.30823255324E+02 -0.77904603189E+01 -0.86246102687E+03  0.86306844552E+03  0.61118272459E+01 0.  0.
         13    1    3    3    0    0  0.20653085081E+02 -0.41548611405E+01 -0.63800560057E+03  0.63835331843E+03  0.00000000000E+00 0.  1.
          3    1    3    3  501    0  0.10170170243E+02 -0.36355991784E+01 -0.22445542631E+03  0.22471512709E+03  0.00000000000E+00 0.  1.
         -3    1    1    2    0  502 -0.30823255324E+02  0.77904603189E+01 -0.13539396531E+03  0.13907656230E+03  0.00000000000E+00 0. -1.
<mgrwt>
<rscale>  1 0.30000000E+03</rscale>
<asrwt>0</asrwt>
<pdfrwt beam="1">  1       21 0.78000449E-02 0.30000000E+03</pdfrwt>
<pdfrwt beam="2">0</pdfrwt>
<totfact> 0.13354192E+04</totfact>
</mgrwt>
</event>
<event>
 6    1  0.1273846E-001  0.3000000E+03  0.7818608E-02  0.1093470E+00
         21   -1    0    0  501  502  0.00000000000E+00  0.00000000000E+00  0.21549314406E+01  0.21549314406E+01  0.00000000000E+00 0. -1.
         13   -1    0    0    0    0 -0.00000000000E+00 -0.00000000000E+00 -0.10000000000E+04  0.10000000000E+04  0.00000000000E+00 0.  1.
    9000005    2    1    2  501    0 -0.22133882158E+02 -0.22234917098E+02 -0.86802227068E+03  0.86859498562E+03  0.32072377940E+01 0.  0.
         13    1    3    3    0    0 -0.19042420888E+02 -0.17422200648E+02 -0.71755621962E+03  0.71802024705E+03  0.00000000000E+00 0.  1.
          3    1    3    3  501    0 -0.30914612695E+01 -0.48127164499E+01 -0.15046605106E+03  0.15057473857E+03  0.00000000000E+00 0.  1.
         -1    1    1    2    0  502  0.22133882158E+02  0.22234917098E+02 -0.12982279788E+03  0.13355994582E+03  0.00000000000E+00 0. -1.
<mgrwt>
<rscale>  1 0.30000000E+03</rscale>
<asrwt>0</asrwt>
<pdfrwt beam="1">  1       21 0.78361309E-02 0.30000000E+03</pdfrwt>
<pdfrwt beam="2">0</pdfrwt>
<totfact> 0.13246497E+04</totfact>
</mgrwt>
</event>
<event>
 6    1  0.1273846E-001  0.3000000E+03  0.7818608E-02  0.1093470E+00
         21   -1    0    0  501  502  0.00000000000E+00  0.00000000000E+00  0.10377425372E+01  0.10377425372E+01  0.00000000000E+00 0. -1.
         13   -1    0    0    0    0 -0.00000000000E+00 -0.00000000000E+00 -0.10000000000E+04  0.10000000000E+04  0.00000000000E+00 0.  1.
    9000005    2    1    2  501    0 -0.16793286298E+02  0.25716032149E+02 -0.35817067957E+03  0.35951052170E+03  0.42720880938E+01 0.  0.
         13    1    3    3    0    0 -0.10363412263E+02  0.12306422448E+02 -0.17600037958E+03  0.17673421276E+03  0.00000000000E+00 0.  1.
          1    1    3    3  501    0 -0.64298740342E+01  0.13409609701E+02 -0.18217029999E+03  0.18277630894E+03  0.00000000000E+00 0.  1.
         -1    1    1    2    0  502  0.16793286298E+02 -0.25716032149E+02 -0.64079157790E+03  0.64152722084E+03  0.00000000000E+00 0. -1.
<mgrwt>
<rscale>  1 0.30000000E+03</rscale>
<asrwt>0</asrwt>
<pdfrwt beam="1">  1       21 0.37736172E-02 0.30000000E+03</pdfrwt>
<pdfrwt beam="2">0</pdfrwt>
<totfact> 0.46375699E+04</totfact>
</mgrwt>
</event>
<event>
 6    1  0.1273846E-001  0.3000000E+03  0.7818608E-02  0.1093470E+00
         21   -1    0    0  501  502  0.00000000000E+00  0.00000000000E+00  0.15394755281E+01  0.15394755281E+01  0.00000000000E+00 0. -1.
         13   -1    0    0    0    0 -0.00000000000E+00 -0.00000000000E+00 -0.10000000000E+04  0.10000000000E+04  0.00000000000E+00 0.  1.
    9000005    2    1    2  501    0  0.25765667218E+02  0.18935878899E+02 -0.78873679168E+03  0.78939216535E+03  0.34390492626E+01 0.  0.
         13    1    3    3    0    0  0.73113897061E+01  0.71906082187E+01 -0.23604976897E+03  0.23627241629E+03  0.00000000000E+00 0.  1.
          3    1    3    3  501    0  0.18454277512E+02  0.11745270680E+02 -0.55268702271E+03  0.55311974907E+03  0.00000000000E+00 0.  1.
         -3    1    1    2    0  502 -0.25765667218E+02 -0.18935878899E+02 -0.20972373280E+03  0.21214731017E+03  0.00000000000E+00 0. -1.
<mgrwt>
<rscale>  1 0.30000000E+03</rscale>
<asrwt>0</asrwt>
<pdfrwt beam="1">  1       21 0.55981046E-02 0.30000000E+03</pdfrwt>
<pdfrwt beam="2">0</pdfrwt>
<totfact> 0.23742857E+04</totfact>
</mgrwt>
</event>
<event>
 6    1  0.1273846E-001  0.3000000E+03  0.7818608E-02  0.1093470E+00
         21   -1    0    0  501  502  0.00000000000E+00  0.00000000000E+00  0.17056612206E+01  0.17056612206E+01  0.00000000000E+00 0. -1.
         13   -1    0    0    0    0 -0.00000000000E+00 -0.00000000000E+00 -0.10000000000E+04  0.10000000000E+04  0.00000000000E+00 0.  1.
    9000005    2    1    2  501    0  0.33361550965E+01 -0.39567252748E+02 -0.36496223212E+03  0.36713001187E+03  0.32120588466E+01 0.  0.
         13    1    3    3    0    0  0.18966609568E+01 -0.32064959452E+02 -0.28539559429E+03  0.28719750032E+03  0.00000000000E+00 0.  1.
          3    1    3    3  501    0  0.14394941397E+01 -0.75022932964E+01 -0.79566637829E+02  0.79932511555E+02  0.00000000000E+00 0.  1.
         -1    1    1    2    0  502 -0.33361550965E+01  0.39567252748E+02 -0.63333210666E+03  0.63457564935E+03  0.00000000000E+00 0. -1.
<mgrwt>
<rscale>  1 0.30000000E+03</rscale>
<asrwt>0</asrwt>
<pdfrwt beam="1">  1       21 0.62024175E-02 0.30000000E+03</pdfrwt>
<pdfrwt beam="2">0</pdfrwt>
<totfact> 0.19898938E+04</totfact>
</mgrwt>
</event>
<event>
 6    1  0.1273846E-001  0.3000000E+03  0.7818608E-02  0.1093470E+00
         21   -1    0    0  501  502  0.00000000000E+00  0.00000000000E+00  0.10579107567E+01  0.10579107567E+01  0.00000000000E+00 0. -1.
         13   -1    0    0    0    0 -0.00000000000E+00 -0.00000000000E+00 -0.10000000000E+04  0.10000000000E+04  0.00000000000E+00 0.  1.
    9000005    2    1    2  501    0  0.30934484717E+02  0.94593891598E+01 -0.45919834160E+03  0.46034566241E+03  0.29307997071E+01 0.  0.
         13    1    3    3    0    0  0.14909909486E+02  0.34539323018E+01 -0.23118020143E+03  0.23168625463E+03  0.00000000000E+00 0.  1.
          1    1    3    3  501    0  0.16024575231E+02  0.60054568580E+01 -0.22801814016E+03  0.22865940778E+03  0.00000000000E+00 0.  1.
         -3    1    1    2    0  502 -0.30934484717E+02 -0.94593891598E+01 -0.53974374765E+03  0.54071224835E+03  0.00000000000E+00 0. -1.
<mgrwt>
<rscale>  1 0.30000000E+03</rscale>
<asrwt>0</asrwt>
<pdfrwt beam="1">  1       21 0.38469563E-02 0.30000000E+03</pdfrwt>
<pdfrwt beam="2">0</pdfrwt>
<totfact> 0.44899752E+04</totfact>
</mgrwt>
</event>
<event>
 6    1  0.1273846E-001  0.3000000E+03  0.7818608E-02  0.1093470E+00
         21   -1    0    0  501  502  0.00000000000E+00  0.00000000000E+00  0.23973242686E+01  0.23973242686E+01  0.00000000000E+00 0. -1.
         13   -1    0    0    0    0 -0.00000000000E+00 -0.00000000000E+00 -0.10000000000E+04  0.10000000000E+04  0.00000000000E+00 0.  1.
    9000005    2    1    2  501    0  0.29629195982E+02  0.12438170098E+02 -0.87676983118E+03  0.87736463394E+03  0.32812620050E+01 0.  0.
         13    1    3    3    0    0  0.12331301829E+02  0.36409600051E+01 -0.37020880804E+03  0.37043201690E+03  0.00000000000E+00 0.  1.
          1    1    3    3  501    0  0.17297894153E+02  0.87972100927E+01 -0.50656102314E+03  0.50693261704E+03  0.00000000000E+00 0.  1.
         -1    1    1    2    0  502 -0.29629195982E+02 -0.12438170098E+02 -0.12083284455E+03  0.12503269033E+03  0.00000000000E+00 0. -1.
<mgrwt>
<rscale>  1 0.30000000E+03</rscale>
<asrwt>0</asrwt>
<pdfrwt beam="1">  1       21 0.87175612E-02 0.30000000E+03</pdfrwt>
<pdfrwt beam="2">0</pdfrwt>
<totfact> 0.10980350E+04</totfact>
</mgrwt>
</event>
<event>
 6    1  0.1273846E-001  0.3000000E+03  0.7818608E-02  0.1093470E+00
         21   -1    0    0  501  502  0.00000000000E+00  0.00000000000E+00  0.12521280240E+01  0.12521280240E+01  0.00000000000E+00 0. -1.
         13   -1    0    0    0    0 -0.00000000000E+00 -0.00000000000E+00 -0.10000000000E+04  0.10000000000E+04  0.00000000000E+00 0.  1.
    9000005    2    1    2  501    0  0.28522396926E+02 -0.16396884570E+02 -0.67909286755E+03  0.67990853185E+03  0.51092044087E+01 0.  0.
         13    1    3    3    0    0  0.21762791154E+02 -0.13891280947E+02 -0.56341398960E+03  0.56400523973E+03  0.00000000000E+00 0.  1.
          3    1    3    3  501    0  0.67596057721E+01 -0.25056036232E+01 -0.11567887796E+03  0.11590329212E+03  0.00000000000E+00 0.  1.
         -3    1    1    2    0  502 -0.28522396926E+02  0.16396884570E+02 -0.31965500442E+03  0.32134359617E+03  0.00000000000E+00 0. -1.
<mgrwt>
<rscale>  1 0.30000000E+03</rscale>
<asrwt>0</asrwt>
<pdfrwt beam="1">  1       21 0.45532024E-02 0.30000000E+03</pdfrwt>
<pdfrwt beam="2">0</pdfrwt>
<totfact> 0.33777429E+04</totfact>
</mgrwt>
</event>
<event>
 6    1  0.1273846E-001  0.3000000E+03  0.7818608E-02  0.1093470E+00
         21   -1    0    0  501  502  0.00000000000E+00  0.00000000000E+00  0.10183472736E+01  0.10183472736E+01  0.00000000000E+00 0. -1.
         13   -1    0    0    0    0 -0.00000000000E+00 -0.00000000000E+00 -0.10000000000E+04  0.10000000000E+04  0.00000000000E+00 0.  1.
    9000005    2    1    2  501    0  0.79738064573E+01  0.30629101299E+02 -0.44712933102E+03  0.44825916968E+03  0.31497797507E+01 0.  0.
         13    1    3    3    0    0  0.55671235945E+01  0.16579130647E+02 -0.23223888379E+03  0.23289645679E+03  0.00000000000E+00 0.  1.
          1    1    3    3  501    0  0.24066828629E+01  0.14049970651E+02 -0.21489044722E+03  0.21536271290E+03  0.00000000000E+00 0.  1.
         -1    1    1    2    0  502 -0.79738064573E+01 -0.30629101299E+02 -0.55185232171E+03  0.55275917759E+03  0.00000000000E+00 0. -1.
<mgrwt>
<rscale>  1 0.30000000E+03</rscale>
<asrwt>0</asrwt>
<pdfrwt beam="1">  1       21 0.37030888E-02 0.30000000E+03</pdfrwt>
<pdfrwt beam="2">0</pdfrwt>
<totfact> 0.47868345E+04</totfact>
</mgrwt>
</event>
<event>
 6    1  0.1273846E-001  0.3000000E+03  0.7818608E-02  0.1093470E+00
         21   -1    0    0  501  502  0.00000000000E+00  0.00000000000E+00  0.28908446632E+01  0.28908446632E+01  0.00000000000E+00 0. -1.
         13   -1    0    0    0    0 -0.00000000000E+00 -0.00000000000E+00 -0.10000000000E+04  0.10000000000E+04  0.00000000000E+00 0.  1.
    9000005    2    1    2  501    0 -0.53557250064E+02  0.34178140687E+01 -0.51837665884E+03  0.52115973327E+03  0.36120158508E+01 0.  0.
         13    1    3    3    0    0 -0.46160411049E+02  0.28592833137E+01 -0.43380478071E+03  0.43626316234E+03  0.00000000000E+00 0.  1.
          1    1    3    3  501    0 -0.73968390154E+01  0.55853075495E+00 -0.84571878136E+02  0.84896570929E+02  0.00000000000E+00 0.  1.
         -3    1    1    2    0  502  0.53557250064E+02 -0.34178140687E+01 -0.47873249650E+03  0.48173111140E+03  0.00000000000E+00 0. -1.
<mgrwt>
<rscale>  1 0.30000000E+03</rscale>
<asrwt>0</asrwt>
<pdfrwt beam="1">  1       21 0.10512185E-01 0.30000000E+03</pdfrwt>
<pdfrwt beam="2">0</pdfrwt>
<totfact> 0.78674950E+03</totfact>
</mgrwt>
</event>
<event>
 6    1  0.1273846E-001  0.3000000E+03  0.7818608E-02  0.1093470E+00
         21   -1    0    0  501  502  0.00000000000E+00  0.00000000000E+00  0.22685363219E+01  0.22685363219E+01  0.00000000000E+00 0. -1.
         13   -1    0    0    0    0 -0.00000000000E+00 -0.00000000000E+00 -0.10000000000E+04  0.10000000000E+04  0.00000000000E+00 0.  1.
    9000005    2    1    2  501    0 -0.43134285675E+02 -0.74002391567E+00 -0.70988399314E+03  0.71120620532E+03  0.42271179125E+01 0.  0.
         13    1    3    3    0    0 -0.90959580192E+01 -0.14017025799E+01 -0.17169619431E+03  0.17194267755E+03  0.00000000000E+00 0.  1.
          1    1    3    3  501    0 -0.34038327656E+02  0.66167866427E+00 -0.53818779883E+03  0.53926352777E+03  0.00000000000E+00 0.  1.
         -3    1    1    2    0  502  0.43134285675E+02  0.74002391567E+00 -0.28784747054E+03  0.29106233101E+03  0.00000000000E+00 0. -1.
<mgrwt>
<rscale>  1 0.30000000E+03</rscale>
<asrwt>0</asrwt>
<pdfrwt beam="1">  1       21 0.82492404E-02 0.30000000E+03</pdfrwt>
<pdfrwt beam="2">0</pdfrwt>
<totfact> 0.12103141E+04</totfact>
</mgrwt>
</event>
<event>
 6    1  0.1273846E-001  0.3000000E+03  0.7818608E-02  0.1093470E+00
         21   -1    0    0  501  502  0.00000000000E+00  0.00000000000E+00  0.11778100424E+01  0.11778100424E+01  0.00000000000E+00 0. -1.
         13   -1    0    0    0    0 -0.00000000000E+00 -0.00000000000E+00 -0.10000000000E+04  0.10000000000E+04  0.00000000000E+00 0.  1.
    9000005    2    1    2  501    0  0.31937663783E+02 -0.11526536851E+02 -0.56574714636E+03  0.56677377138E+03  0.31303177645E+01 0.  0.
         13    1    3    3    0    0  0.25937361120E+02 -0.10379022808E+02 -0.47570455980E+03  0.47652418514E+03  0.00000000000E+00 0.  1.
          1    1    3    3  501    0  0.60003026634E+01 -0.11475140436E+01 -0.90042586560E+02  0.90249586232E+02  0.00000000000E+00 0.  1.
         -1    1    1    2    0  502 -0.31937663783E+02  0.11526536851E+02 -0.43307504360E+03  0.43440403867E+03  0.00000000000E+00 0. -1.
<mgrwt>
<rscale>  1 0.30000000E+03</rscale>
<asrwt>0</asrwt>
<pdfrwt beam="1">  1       21 0.42829546E-02 0.30000000E+03</pdfrwt>
<pdfrwt beam="2">0</pdfrwt>
<totfact> 0.37467549E+04</totfact>
</mgrwt>
</event>
<event>
 6    1  0.1273846E-001  0.3000000E+03  0.7818608E-02  0.1093470E+00
         21   -1    0    0  501  502  0.00000000000E+00  0.00000000000E+00  0.18029684407E+01  0.18029684407E+01  0.00000000000E+00 0. -1.
         13   -1    0    0    0    0 -0.00000000000E+00 -0.00000000000E+00 -0.10000000000E+04  0.10000000000E+04  0.00000000000E+00 0.  1.
    9000005    2    1    2  501    0  0.14936728879E+02  0.37523068791E+02 -0.65245828504E+03  0.65371337164E+03  0.28761038247E+01 0.  0.
         13    1    3    3    0    0  0.11980250975E+02  0.30951339096E+02 -0.51803846751E+03  0.51910053518E+03  0.00000000000E+00 0.  1.
          3    1    3    3  501    0  0.29564779043E+01  0.65717296946E+01 -0.13441981754E+03  0.13461283646E+03  0.00000000000E+00 0.  1.
         -1    1    1    2    0  502 -0.14936728879E+02 -0.37523068791E+02 -0.34573874652E+03  0.34808959680E+03  0.00000000000E+00 0. -1.
<mgrwt>
<rscale>  1 0.30000000E+03</rscale>
<asrwt>0</asrwt>
<pdfrwt beam="1">  1       21 0.65562627E-02 0.30000000E+03</pdfrwt>
<pdfrwt beam="2">0</pdfrwt>
<totfact> 0.18078187E+04</totfact>
</mgrwt>
</event>
<event>
 6    1  0.1273846E-001  0.3000000E+03  0.7818608E-02  0.1093470E+00
         21   -1    0    0  501  502  0.00000000000E+00  0.00000000000E+00  0.15572084346E+01  0.15572084346E+01  0.00000000000E+00 0. -1.
         13   -1    0    0    0    0 -0.00000000000E+00 -0.00000000000E+00 -0.10000000000E+04  0.10000000000E+04  0.00000000000E+00 0.  1.
    9000005    2    1    2  501    0 -0.23568753991E+02  0.20921499084E+02 -0.80003448113E+03  0.80066158146E+03  0.32560308330E+01 0.  0.
         13    1    3    3    0    0 -0.47127923589E+01  0.51423726084E+01 -0.14952342161E+03  0.14968603147E+03  0.00000000000E+00 0.  1.
          1    1    3    3  501    0 -0.18855961632E+02  0.15779126475E+02 -0.65051105953E+03  0.65097554999E+03  0.00000000000E+00 0.  1.
         -1    1    1    2    0  502  0.23568753991E+02 -0.20921499084E+02 -0.19840831043E+03  0.20089562697E+03  0.00000000000E+00 0. -1.
<mgrwt>
<rscale>  1 0.30000000E+03</rscale>
<asrwt>0</asrwt>
<pdfrwt beam="1">  1       21 0.56625881E-02 0.30000000E+03</pdfrwt>
<pdfrwt beam="2">0</pdfrwt>
<totfact> 0.23280312E+04</totfact>
</mgrwt>
</event>
<event>
 6    1  0.1273846E-001  0.3000000E+03  0.7818608E-02  0.1093470E+00
         21   -1    0    0  501  502  0.00000000000E+00  0.00000000000E+00  0.12974647582E+01  0.12974647582E+01  0.00000000000E+00 0. -1.
         13   -1    0    0    0    0 -0.00000000000E+00 -0.00000000000E+00 -0.10000000000E+04  0.10000000000E+04  0.00000000000E+00 0.  1.
    9000005    2    1    2  501    0  0.13438656689E+02  0.32433147744E+02 -0.47081781651E+03  0.47224663276E+03  0.10721904908E+02 0.  0.
         13    1    3    3    0    0 -0.18345209911E+01  0.32210914282E+01 -0.41559217955E+02  0.41724207533E+02  0.00000000000E+00 0.  1.
          3    1    3    3  501    0  0.15273177680E+02  0.29212056316E+02 -0.42925859855E+03  0.43052242522E+03  0.00000000000E+00 0.  1.
         -1    1    1    2    0  502 -0.13438656689E+02 -0.32433147744E+02 -0.52788471874E+03  0.52905083200E+03  0.00000000000E+00 0. -1.
<mgrwt>
<rscale>  1 0.30000000E+03</rscale>
<asrwt>0</asrwt>
<pdfrwt beam="1">  1       21 0.47180636E-02 0.30000000E+03</pdfrwt>
<pdfrwt beam="2">0</pdfrwt>
<totfact> 0.31796266E+04</totfact>
</mgrwt>
</event>
<event>
 6    1  0.1273846E-001  0.3000000E+03  0.7818608E-02  0.1093470E+00
         21   -1    0    0  501  502  0.00000000000E+00  0.00000000000E+00  0.15653638834E+01  0.15653638834E+01  0.00000000000E+00 0. -1.
         13   -1    0    0    0    0 -0.00000000000E+00 -0.00000000000E+00 -0.10000000000E+04  0.10000000000E+04  0.00000000000E+00 0.  1.
    9000005    2    1    2  501    0  0.18220054850E+02  0.25893783262E+02 -0.79877581450E+03  0.79941170089E+03  0.37158158012E+01 0.  0.
         13    1    3    3    0    0  0.31857918551E+01  0.38928503630E+01 -0.97298024040E+02  0.97427968448E+02  0.00000000000E+00 0.  1.
          1    1    3    3  501    0  0.15034262995E+02  0.22000932899E+02 -0.70147779046E+03  0.70198373245E+03  0.00000000000E+00 0.  1.
         -3    1    1    2    0  502 -0.18220054850E+02 -0.25893783262E+02 -0.19965882162E+03  0.20215366299E+03  0.00000000000E+00 0. -1.
<mgrwt>
<rscale>  1 0.30000000E+03</rscale>
<asrwt>0</asrwt>
<pdfrwt beam="1">  1       21 0.56922443E-02 0.30000000E+03</pdfrwt>
<pdfrwt beam="2">0</pdfrwt>
<totfact> 0.23072212E+04</totfact>
</mgrwt>
</event>
<event>
 6    1  0.1273846E-001  0.3000000E+03  0.7818608E-02  0.1093470E+00
         21   -1    0    0  501  502  0.00000000000E+00  0.00000000000E+00  0.50649223983E+01  0.50649223983E+01  0.00000000000E+00 0. -1.
         13   -1    0    0    0    0 -0.00000000000E+00 -0.00000000000E+00 -0.10000000000E+04  0.10000000000E+04  0.00000000000E+00 0.  1.
    9000005    2    1    2  501    0  0.67708424598E+02 -0.65544404947E+01 -0.35005835567E+03  0.35661031493E+03  0.16348979977E+01 0.  0.
         13    1    3    3    0    0  0.34493958716E+02 -0.38346505957E+01 -0.18199578365E+03  0.18527547868E+03  0.00000000000E+00 0.  1.
          1    1    3    3  501    0  0.33214465882E+02 -0.27197898991E+01 -0.16806257202E+03  0.17133483626E+03  0.00000000000E+00 0.  1.
         -3    1    1    2    0  502 -0.67708424598E+02  0.65544404947E+01 -0.64487672193E+03  0.64845460746E+03  0.00000000000E+00 0. -1.
<mgrwt>
<rscale>  1 0.30000000E+03</rscale>
<asrwt>0</asrwt>
<pdfrwt beam="1">  1       21 0.18417938E-01 0.30000000E+03</pdfrwt>
<pdfrwt beam="2">0</pdfrwt>
<totfact> 0.28054511E+03</totfact>
</mgrwt>
</event>
<event>
 6    1  0.1273846E-001  0.3000000E+03  0.7818608E-02  0.1093470E+00
         21   -1    0    0  501  502  0.00000000000E+00  0.00000000000E+00  0.10880896758E+01  0.10880896758E+01  0.00000000000E+00 0. -1.
         13   -1    0    0    0    0 -0.00000000000E+00 -0.00000000000E+00 -0.10000000000E+04  0.10000000000E+04  0.00000000000E+00 0.  1.
    9000005    2    1    2  501    0  0.19076325777E+02 -0.24764390696E+02 -0.65600996862E+03  0.65676422632E+03  0.36039968753E+01 0.  0.
         13    1    3    3    0    0  0.13750771108E+02 -0.15330868887E+02 -0.41391673567E+03  0.41442874335E+03  0.00000000000E+00 0.  1.
          3    1    3    3  501    0  0.53255546686E+01 -0.94335218086E+01 -0.24209323295E+03  0.24233548297E+03  0.00000000000E+00 0.  1.
         -3    1    1    2    0  502 -0.19076325777E+02  0.24764390696E+02 -0.34290194170E+03  0.34432386335E+03  0.00000000000E+00 0. -1.
<mgrwt>
<rscale>  1 0.30000000E+03</rscale>
<asrwt>0</asrwt>
<pdfrwt beam="1">  1       21 0.39566981E-02 0.30000000E+03</pdfrwt>
<pdfrwt beam="2">0</pdfrwt>
<totfact> 0.42824939E+04</totfact>
</mgrwt>
</event>
<event>
 6    1  0.1273846E-001  0.3000000E+03  0.7818608E-02  0.1093470E+00
         21   -1    0    0  501  502  0.00000000000E+00  0.00000000000E+00  0.39589422018E+01  0.39589422018E+01  0.00000000000E+00 0. -1.
         13   -1    0    0    0    0 -0.00000000000E+00 -0.00000000000E+00 -0.10000000000E+04  0.10000000000E+04  0.00000000000E+00 0.  1.
    9000005    2    1    2  501    0 -0.29246353780E+02  0.35622884988E+02 -0.83954889845E+03  0.84082054978E+03  0.35362269119E+01 0.  0.
         13    1    3    3    0    0 -0.26264060584E+02  0.30740713987E+02 -0.75003263461E+03  0.75112165816E+03  0.00000000000E+00 0.  1.
          3    1    3    3  501    0 -0.29822931961E+01  0.48821710014E+01 -0.89516263836E+02  0.89698891618E+02  0.00000000000E+00 0.  1.
         -3    1    1    2    0  502  0.29246353780E+02 -0.35622884988E+02 -0.15649215935E+03  0.16313839242E+03  0.00000000000E+00 0. -1.
<mgrwt>
<rscale>  1 0.30000000E+03</rscale>
<asrwt>0</asrwt>
<pdfrwt beam="1">  1       21 0.14396184E-01 0.30000000E+03</pdfrwt>
<pdfrwt beam="2">0</pdfrwt>
<totfact> 0.44426260E+03</totfact>
</mgrwt>
</event>
<event>
 6    1  0.1273846E-001  0.3000000E+03  0.7818608E-02  0.1093470E+00
         21   -1    0    0  501  502  0.00000000000E+00  0.00000000000E+00  0.94033547512E+00  0.94033547512E+00  0.00000000000E+00 0. -1.
         13   -1    0    0    0    0 -0.00000000000E+00 -0.00000000000E+00 -0.10000000000E+04  0.10000000000E+04  0.00000000000E+00 0.  1.
    9000005    2    1    2  501    0  0.30246195291E+02 -0.37087941045E+01 -0.45855695878E+03  0.45957930769E+03  0.31730318559E+01 0.  0.
         13    1    3    3    0    0  0.32515474304E+01 -0.32382999849E-01 -0.36823122323E+02  0.36966416475E+02  0.00000000000E+00 0.  1.
          3    1    3    3  501    0  0.26994647860E+02 -0.36764111046E+01 -0.42173383645E+03  0.42261289122E+03  0.00000000000E+00 0.  1.
         -1    1    1    2    0  502 -0.30246195291E+02  0.37087941045E+01 -0.54050270575E+03  0.54136102778E+03  0.00000000000E+00 0. -1.
<mgrwt>
<rscale>  1 0.30000000E+03</rscale>
<asrwt>0</asrwt>
<pdfrwt beam="1">  1       21 0.34194089E-02 0.30000000E+03</pdfrwt>
<pdfrwt beam="2">0</pdfrwt>
<totfact> 0.54708032E+04</totfact>
</mgrwt>
</event>
<event>
 6    1  0.1273846E-001  0.3000000E+03  0.7818608E-02  0.1093470E+00
         21   -1    0    0  501  502  0.00000000000E+00  0.00000000000E+00  0.18556771444E+01  0.18556771444E+01  0.00000000000E+00 0. -1.
         13   -1    0    0    0    0 -0.00000000000E+00 -0.00000000000E+00 -0.10000000000E+04  0.10000000000E+04  0.00000000000E+00 0.  1.
    9000005    2    1    2  501    0  0.12880084509E+02 -0.39378546688E+02 -0.63276499955E+03  0.63413483681E+03  0.43451220638E+01 0.  0.
         13    1    3    3    0    0  0.11028401835E+02 -0.37086322314E+02 -0.58259012563E+03  0.58387350979E+03  0.00000000000E+00 0.  1.
          3    1    3    3  501    0  0.18516826733E+01 -0.22922243743E+01 -0.50174873918E+02  0.50261327022E+02  0.00000000000E+00 0.  1.
         -3    1    1    2    0  502 -0.12880084509E+02  0.39378546688E+02 -0.36537932330E+03  0.36772084033E+03  0.00000000000E+00 0. -1.
<mgrwt>
<rscale>  1 0.30000000E+03</rscale>
<asrwt>0</asrwt>
<pdfrwt beam="1">  1       21 0.67479311E-02 0.30000000E+03</pdfrwt>
<pdfrwt beam="2">0</pdfrwt>
<totfact> 0.17197153E+04</totfact>
</mgrwt>
</event>
<event>
 6    1  0.1273846E-001  0.3000000E+03  0.7818608E-02  0.1093470E+00
         21   -1    0    0  501  502  0.00000000000E+00  0.00000000000E+00  0.39421440980E+01  0.39421440980E+01  0.00000000000E+00 0. -1.
         13   -1    0    0    0    0 -0.00000000000E+00 -0.00000000000E+00 -0.10000000000E+04  0.10000000000E+04  0.00000000000E+00 0.  1.
    9000005    2    1    2  501    0  0.21495479666E+02 -0.26666976560E+02 -0.91865977819E+03  0.91930382111E+03  0.32471767749E+01 0.  0.
         13    1    3    3    0    0  0.52585537660E+01 -0.72150152598E+01 -0.27745326350E+03  0.27759687004E+03  0.00000000000E+00 0.  1.
          3    1    3    3  501    0  0.16236925900E+02 -0.19451961300E+02 -0.64120651469E+03  0.64170695106E+03  0.00000000000E+00 0.  1.
         -3    1    1    2    0  502 -0.21495479666E+02  0.26666976560E+02 -0.77398077716E+02  0.84638322993E+02  0.00000000000E+00 0. -1.
<mgrwt>
<rscale>  1 0.30000000E+03</rscale>
<asrwt>0</asrwt>
<pdfrwt beam="1">  1       21 0.14335100E-01 0.30000000E+03</pdfrwt>
<pdfrwt beam="2">0</pdfrwt>
<totfact> 0.44775592E+03</totfact>
</mgrwt>
</event>
<event>
 6    1  0.1273846E-001  0.3000000E+03  0.7818608E-02  0.1093470E+00
         21   -1    0    0  501  502  0.00000000000E+00  0.00000000000E+00  0.21605496487E+01  0.21605496487E+01  0.00000000000E+00 0. -1.
         13   -1    0    0    0    0 -0.00000000000E+00 -0.00000000000E+00 -0.10000000000E+04  0.10000000000E+04  0.00000000000E+00 0.  1.
    9000005    2    1    2  501    0  0.29218081773E+02  0.22523532295E+02 -0.80334187562E+03  0.80419511734E+03  0.32575807706E+01 0.  0.
         13    1    3    3    0    0  0.16921189320E+02  0.14074907981E+02 -0.44850350244E+03  0.44904322886E+03  0.00000000000E+00 0.  1.
          3    1    3    3  501    0  0.12296892453E+02  0.84486243138E+01 -0.35483837318E+03  0.35515188849E+03  0.00000000000E+00 0.  1.
         -1    1    1    2    0  502 -0.29218081773E+02 -0.22523532295E+02 -0.19449757474E+03  0.19796543230E+03  0.00000000000E+00 0. -1.
<mgrwt>
<rscale>  1 0.30000000E+03</rscale>
<asrwt>0</asrwt>
<pdfrwt beam="1">  1       21 0.78565607E-02 0.30000000E+03</pdfrwt>
<pdfrwt beam="2">0</pdfrwt>
<totfact> 0.13186117E+04</totfact>
</mgrwt>
</event>
<event>
 6    1  0.1273846E-001  0.3000000E+03  0.7818608E-02  0.1093470E+00
         21   -1    0    0  501  502  0.00000000000E+00  0.00000000000E+00  0.11750697878E+01  0.11750697878E+01  0.00000000000E+00 0. -1.
         13   -1    0    0    0    0 -0.00000000000E+00 -0.00000000000E+00 -0.10000000000E+04  0.10000000000E+04  0.00000000000E+00 0.  1.
    9000005    2    1    2  501    0 -0.22487972636E+02  0.20437053657E+02 -0.72975783999E+03  0.73039752065E+03  0.32635979820E+01 0.  0.
         13    1    3    3    0    0 -0.19365381154E+02  0.16627933093E+02 -0.63297624784E+03  0.63349067592E+03  0.00000000000E+00 0.  1.
          3    1    3    3  501    0 -0.31225914820E+01  0.38091205637E+01 -0.96781592150E+02  0.96906844733E+02  0.00000000000E+00 0.  1.
         -3    1    1    2    0  502  0.22487972636E+02 -0.20437053657E+02 -0.26906709022E+03  0.27077754913E+03  0.00000000000E+00 0. -1.
<mgrwt>
<rscale>  1 0.30000000E+03</rscale>
<asrwt>0</asrwt>
<pdfrwt beam="1">  1       21 0.42729901E-02 0.30000000E+03</pdfrwt>
<pdfrwt beam="2">0</pdfrwt>
<totfact> 0.37615385E+04</totfact>
</mgrwt>
</event>
<event>
 6    1  0.1273846E-001  0.3000000E+03  0.7818608E-02  0.1093470E+00
         21   -1    0    0  501  502  0.00000000000E+00  0.00000000000E+00  0.13981772829E+01  0.13981772829E+01  0.00000000000E+00 0. -1.
         13   -1    0    0    0    0 -0.00000000000E+00 -0.00000000000E+00 -0.10000000000E+04  0.10000000000E+04  0.00000000000E+00 0.  1.
    9000005    2    1    2  501    0  0.25079275811E+02 -0.24615236873E+02 -0.33302364355E+03  0.33489296909E+03  0.36977862041E+01 0.  0.
         13    1    3    3    0    0  0.15795121629E+02 -0.17676604509E+02 -0.21615931016E+03  0.21745527260E+03  0.00000000000E+00 0.  1.
          3    1    3    3  501    0  0.92841541823E+01 -0.69386323640E+01 -0.11686433339E+03  0.11743769649E+03  0.00000000000E+00 0.  1.
         -3    1    1    2    0  502 -0.25079275811E+02  0.24615236873E+02 -0.66557817917E+03  0.66650520819E+03  0.00000000000E+00 0. -1.
<mgrwt>
<rscale>  1 0.30000000E+03</rscale>
<asrwt>0</asrwt>
<pdfrwt beam="1">  1       21 0.50842918E-02 0.30000000E+03</pdfrwt>
<pdfrwt beam="2">0</pdfrwt>
<totfact> 0.27994993E+04</totfact>
</mgrwt>
</event>
<event>
 6    1  0.1273846E-001  0.3000000E+03  0.7818608E-02  0.1093470E+00
         21   -1    0    0  501  502  0.00000000000E+00  0.00000000000E+00  0.21422868447E+01  0.21422868447E+01  0.00000000000E+00 0. -1.
         13   -1    0    0    0    0 -0.00000000000E+00 -0.00000000000E+00 -0.10000000000E+04  0.10000000000E+04  0.00000000000E+00 0.  1.
    9000005    2    1    2  501    0 -0.34745642651E+02  0.13250381038E+02 -0.79653686166E+03  0.79741584125E+03  0.42684429609E+01 0.  0.
         13    1    3    3    0    0 -0.15963454302E+02  0.69574739800E+01 -0.41487212826E+03  0.41523742741E+03  0.00000000000E+00 0.  1.
          3    1    3    3  501    0 -0.18782188348E+02  0.62929070582E+01 -0.38166473340E+03  0.38217841384E+03  0.00000000000E+00 0.  1.
         -1    1    1    2    0  502  0.34745642651E+02 -0.13250381038E+02 -0.20132085149E+03  0.20472644560E+03  0.00000000000E+00 0. -1.
<mgrwt>
<rscale>  1 0.30000000E+03</rscale>
<asrwt>0</asrwt>
<pdfrwt beam="1">  1       21 0.77901504E-02 0.30000000E+03</pdfrwt>
<pdfrwt beam="2">0</pdfrwt>
<totfact> 0.13383957E+04</totfact>
</mgrwt>
</event>
<event>
 6    1  0.1273846E-001  0.3000000E+03  0.7818608E-02  0.1093470E+00
         21   -1    0    0  501  502  0.00000000000E+00  0.00000000000E+00  0.14054976007E+01  0.14054976007E+01  0.00000000000E+00 0. -1.
         13   -1    0    0    0    0 -0.00000000000E+00 -0.00000000000E+00 -0.10000000000E+04  0.10000000000E+04  0.00000000000E+00 0.  1.
    9000005    2    1    2  501    0 -0.30617244217E+02 -0.85041929691E+01 -0.76413112371E+03  0.76479862347E+03  0.32898770868E+01 0.  0.
         13    1    3    3    0    0 -0.85187043350E+01 -0.24563375878E+01 -0.17966890565E+03  0.17988751367E+03  0.00000000000E+00 0.  1.
          1    1    3    3  501    0 -0.22098539882E+02 -0.60478553813E+01 -0.58446221807E+03  0.58491110980E+03  0.00000000000E+00 0.  1.
         -3    1    1    2    0  502  0.30617244217E+02  0.85041929691E+01 -0.23446337868E+03  0.23660687413E+03  0.00000000000E+00 0. -1.
<mgrwt>
<rscale>  1 0.30000000E+03</rscale>
<asrwt>0</asrwt>
<pdfrwt beam="1">  1       21 0.51109111E-02 0.30000000E+03</pdfrwt>
<pdfrwt beam="2">0</pdfrwt>
<totfact> 0.27746642E+04</totfact>
</mgrwt>
</event>
<event>
 6    1  0.1273846E-001  0.3000000E+03  0.7818608E-02  0.1093470E+00
         21   -1    0    0  501  502  0.00000000000E+00  0.00000000000E+00  0.31396831521E+01  0.31396831521E+01  0.00000000000E+00 0. -1.
         13   -1    0    0    0    0 -0.00000000000E+00 -0.00000000000E+00 -0.10000000000E+04  0.10000000000E+04  0.00000000000E+00 0.  1.
    9000005    2    1    2  501    0 -0.46475863152E+02 -0.57858170287E+01 -0.77345122715E+03  0.77487426112E+03  0.31365963791E+01 0.  0.
         13    1    3    3    0    0 -0.22229631125E+02 -0.14857434528E+01 -0.38250981510E+03  0.38315809085E+03  0.00000000000E+00 0.  1.
          1    1    3    3  501    0 -0.24246232027E+02 -0.43000735759E+01 -0.39094141205E+03  0.39171617028E+03  0.00000000000E+00 0.  1.
         -1    1    1    2    0  502  0.46475863152E+02  0.57858170287E+01 -0.22340908970E+03  0.22826542203E+03  0.00000000000E+00 0. -1.
<mgrwt>
<rscale>  1 0.30000000E+03</rscale>
<asrwt>0</asrwt>
<pdfrwt beam="1">  1       21 0.11417054E-01 0.30000000E+03</pdfrwt>
<pdfrwt beam="2">0</pdfrwt>
<totfact> 0.67816318E+03</totfact>
</mgrwt>
</event>
<event>
 6    1  0.1273846E-001  0.3000000E+03  0.7818608E-02  0.1093470E+00
         21   -1    0    0  501  502  0.00000000000E+00  0.00000000000E+00  0.17501858511E+01  0.17501858511E+01  0.00000000000E+00 0. -1.
         13   -1    0    0    0    0 -0.00000000000E+00 -0.00000000000E+00 -0.10000000000E+04  0.10000000000E+04  0.00000000000E+00 0.  1.
    9000005    2    1    2  501    0  0.34381168151E+02 -0.32686432513E+01 -0.77960063853E+03  0.78039027360E+03  0.62509826385E+01 0.  0.
         13    1    3    3    0    0  0.13234542240E+02 -0.30685143679E+01 -0.36143270091E+03  0.36168794033E+03  0.00000000000E+00 0.  1.
          1    1    3    3  501    0  0.21146625911E+02 -0.20012888340E+00 -0.41816793761E+03  0.41870233327E+03  0.00000000000E+00 0.  1.
         -3    1    1    2    0  502 -0.34381168151E+02  0.32686432513E+01 -0.21864917562E+03  0.22135991225E+03  0.00000000000E+00 0. -1.
<mgrwt>
<rscale>  1 0.30000000E+03</rscale>
<asrwt>0</asrwt>
<pdfrwt beam="1">  1       21 0.63643256E-02 0.30000000E+03</pdfrwt>
<pdfrwt beam="2">0</pdfrwt>
<totfact> 0.19032194E+04</totfact>
</mgrwt>
</event>
<event>
 6    1  0.1674990E-001  0.3000000E+03  0.7818608E-02  0.1093470E+00
         21   -1    0    0  501  502  0.00000000000E+00  0.00000000000E+00  0.12735656356E+02  0.12735656356E+02  0.00000000000E+00 0. -1.
         13   -1    0    0    0    0 -0.00000000000E+00 -0.00000000000E+00 -0.10000000000E+04  0.10000000000E+04  0.00000000000E+00 0.  1.
    9000005    2    1    2  501    0 -0.94461750187E+02  0.31252484638E+02 -0.25574509288E+03  0.27448085327E+03  0.58690913919E+01 0.  0.
         13    1    3    3    0    0 -0.95608172176E+01  0.16625136044E+01 -0.27774367928E+02  0.29420888687E+02  0.00000000000E+00 0.  1.
          3    1    3    3  501    0 -0.84900932969E+02  0.29589971034E+02 -0.22797072495E+03  0.24505996458E+03  0.00000000000E+00 0.  1.
         -1    1    1    2    0  502  0.94461750187E+02 -0.31252484638E+02 -0.73151925076E+03  0.73825480309E+03  0.00000000000E+00 0. -1.
<mgrwt>
<rscale>  1 0.30000000E+03</rscale>
<asrwt>0</asrwt>
<pdfrwt beam="1">  1       21 0.46311575E-01 0.30000000E+03</pdfrwt>
<pdfrwt beam="2">0</pdfrwt>
<totfact> 0.44309110E+02</totfact>
</mgrwt>
</event>
<event>
 6    1  0.1273846E-001  0.3000000E+03  0.7818608E-02  0.1093470E+00
         21   -1    0    0  501  502  0.00000000000E+00  0.00000000000E+00  0.12856909663E+01  0.12856909663E+01  0.00000000000E+00 0. -1.
         13   -1    0    0    0    0 -0.00000000000E+00 -0.00000000000E+00 -0.10000000000E+04  0.10000000000E+04  0.00000000000E+00 0.  1.
    9000005    2    1    2  501    0 -0.25699118420E+02 -0.24299622431E+02 -0.57584196111E+03  0.57693684983E+03  0.33538299390E+01 0.  0.
         13    1    3    3    0    0 -0.53695008205E+00 -0.27402175744E+00 -0.50950830991E+01  0.51306213172E+01  0.00000000000E+00 0.  1.
          1    1    3    3  501    0 -0.25162168338E+02 -0.24025600674E+02 -0.57074687801E+03  0.57180622851E+03  0.00000000000E+00 0.  1.
         -1    1    1    2    0  502  0.25699118420E+02  0.24299622431E+02 -0.42287234792E+03  0.42434884114E+03  0.00000000000E+00 0. -1.
<mgrwt>
<rscale>  1 0.30000000E+03</rscale>
<asrwt>0</asrwt>
<pdfrwt beam="1">  1       21 0.46752497E-02 0.30000000E+03</pdfrwt>
<pdfrwt beam="2">0</pdfrwt>
<totfact> 0.32292904E+04</totfact>
</mgrwt>
</event>
<event>
 6    1  0.1273846E-001  0.3000000E+03  0.7818608E-02  0.1093470E+00
         21   -1    0    0  501  502  0.00000000000E+00  0.00000000000E+00  0.12177272184E+01  0.12177272184E+01  0.00000000000E+00 0. -1.
         13   -1    0    0    0    0 -0.00000000000E+00 -0.00000000000E+00 -0.10000000000E+04  0.10000000000E+04  0.00000000000E+00 0.  1.
    9000005    2    1    2  501    0  0.21227354894E+02  0.24444605711E+02 -0.67431935487E+03  0.67514361840E+03  0.80108529639E+01 0.  0.
         13    1    3    3    0    0  0.50883216656E+01  0.18768199887E+01 -0.86495085625E+02  0.86664948555E+02  0.00000000000E+00 0.  1.
          1    1    3    3  501    0  0.16139033228E+02  0.22567785723E+02 -0.58782426924E+03  0.58847866984E+03  0.00000000000E+00 0.  1.
         -3    1    1    2    0  502 -0.21227354894E+02 -0.24444605711E+02 -0.32446291791E+03  0.32607410882E+03  0.00000000000E+00 0. -1.
<mgrwt>
<rscale>  1 0.30000000E+03</rscale>
<asrwt>0</asrwt>
<pdfrwt beam="1">  1       21 0.44281083E-02 0.30000000E+03</pdfrwt>
<pdfrwt beam="2">0</pdfrwt>
<totfact> 0.35412251E+04</totfact>
</mgrwt>
</event>
<event>
 6    1  0.1273846E-001  0.3000000E+03  0.7818608E-02  0.1093470E+00
         21   -1    0    0  501  502  0.00000000000E+00  0.00000000000E+00  0.42688045337E+01  0.42688045337E+01  0.00000000000E+00 0. -1.
         13   -1    0    0    0    0 -0.00000000000E+00 -0.00000000000E+00 -0.10000000000E+04  0.10000000000E+04  0.00000000000E+00 0.  1.
    9000005    2    1    2  501    0 -0.19003639599E+02 -0.61759065433E+02 -0.57062539033E+03  0.57428012324E+03  0.30005627239E+01 0.  0.
         13    1    3    3    0    0 -0.19781194805E+00 -0.23626653350E+01 -0.18859357279E+02  0.19007805608E+02  0.00000000000E+00 0.  1.
          3    1    3    3  501    0 -0.18805827651E+02 -0.59396400098E+02 -0.55176603305E+03  0.55527231763E+03  0.00000000000E+00 0.  1.
         -1    1    1    2    0  502  0.19003639599E+02  0.61759065433E+02 -0.42510580514E+03  0.42998868130E+03  0.00000000000E+00 0. -1.
<mgrwt>
<rscale>  1 0.30000000E+03</rscale>
<asrwt>0</asrwt>
<pdfrwt beam="1">  1       21 0.15522958E-01 0.30000000E+03</pdfrwt>
<pdfrwt beam="2">0</pdfrwt>
<totfact> 0.38644177E+03</totfact>
</mgrwt>
</event>
<event>
 6    1  0.1273846E-001  0.3000000E+03  0.7818608E-02  0.1093470E+00
         21   -1    0    0  501  502  0.00000000000E+00  0.00000000000E+00  0.12183999596E+01  0.12183999596E+01  0.00000000000E+00 0. -1.
         13   -1    0    0    0    0 -0.00000000000E+00 -0.00000000000E+00 -0.10000000000E+04  0.10000000000E+04  0.00000000000E+00 0.  1.
    9000005    2    1    2  501    0  0.12913557135E+02 -0.29104049107E+02 -0.70263646009E+03  0.70336650800E+03  0.35558240881E+01 0.  0.
         13    1    3    3    0    0  0.10183752111E+02 -0.24382346476E+02 -0.60670004625E+03  0.60727518782E+03  0.00000000000E+00 0.  1.
          1    1    3    3  501    0  0.27298050244E+01 -0.47217026314E+01 -0.95936413846E+02  0.96091320175E+02  0.00000000000E+00 0.  1.
         -3    1    1    2    0  502 -0.12913557135E+02  0.29104049107E+02 -0.29614513995E+03  0.29785189196E+03  0.00000000000E+00 0. -1.
<mgrwt>
<rscale>  1 0.30000000E+03</rscale>
<asrwt>0</asrwt>
<pdfrwt beam="1">  1       21 0.44305547E-02 0.30000000E+03</pdfrwt>
<pdfrwt beam="2">0</pdfrwt>
<totfact> 0.35379119E+04</totfact>
</mgrwt>
</event>
<event>
 6    1  0.1273846E-001  0.3000000E+03  0.7818608E-02  0.1093470E+00
         21   -1    0    0  501  502  0.00000000000E+00  0.00000000000E+00  0.33599903365E+01  0.33599903365E+01  0.00000000000E+00 0. -1.
         13   -1    0    0    0    0 -0.00000000000E+00 -0.00000000000E+00 -0.10000000000E+04  0.10000000000E+04  0.00000000000E+00 0.  1.
    9000005    2    1    2  501    0 -0.19689954917E+02 -0.40288811894E+02 -0.81594688712E+03  0.81718564403E+03  0.34887702393E+01 0.  0.
         13    1    3    3    0    0 -0.36508647913E+01 -0.96408149107E+01 -0.16783002871E+03  0.16814634300E+03  0.00000000000E+00 0.  1.
          1    1    3    3  501    0 -0.16039090126E+02 -0.30647996983E+02 -0.64811685841E+03  0.64903930104E+03  0.00000000000E+00 0.  1.
         -3    1    1    2    0  502  0.19689954917E+02  0.40288811894E+02 -0.18069312254E+03  0.18617434630E+03  0.00000000000E+00 0. -1.
<mgrwt>
<rscale>  1 0.30000000E+03</rscale>
<asrwt>0</asrwt>
<pdfrwt beam="1">  1       21 0.12218172E-01 0.30000000E+03</pdfrwt>
<pdfrwt beam="2">0</pdfrwt>
<totfact> 0.59975366E+03</totfact>
</mgrwt>
</event>
<event>
 6    1  0.1273846E-001  0.3000000E+03  0.7818608E-02  0.1093470E+00
         21   -1    0    0  501  502  0.00000000000E+00  0.00000000000E+00  0.99815582815E+00  0.99815582815E+00  0.00000000000E+00 0. -1.
         13   -1    0    0    0    0 -0.00000000000E+00 -0.00000000000E+00 -0.10000000000E+04  0.10000000000E+04  0.00000000000E+00 0.  1.
    9000005    2    1    2  501    0  0.12775570985E+02  0.28338355111E+02 -0.58208719057E+03  0.58292626491E+03  0.33548944636E+01 0.  0.
         13    1    3    3    0    0  0.61515897815E+01  0.10290193787E+02 -0.20753172451E+03  0.20787772085E+03  0.00000000000E+00 0.  1.
          1    1    3    3  501    0  0.66239812033E+01  0.18048161324E+02 -0.37455546605E+03  0.37504854406E+03  0.00000000000E+00 0.  1.
         -3    1    1    2    0  502 -0.12775570985E+02 -0.28338355111E+02 -0.41691465360E+03  0.41807189092E+03  0.00000000000E+00 0. -1.
<mgrwt>
<rscale>  1 0.30000000E+03</rscale>
<asrwt>0</asrwt>
<pdfrwt beam="1">  1       21 0.36296652E-02 0.30000000E+03</pdfrwt>
<pdfrwt beam="2">0</pdfrwt>
<totfact> 0.49504235E+04</totfact>
</mgrwt>
</event>
<event>
 6    1  0.1273846E-001  0.3000000E+03  0.7818608E-02  0.1093470E+00
         21   -1    0    0  501  502  0.00000000000E+00  0.00000000000E+00  0.22434268121E+01  0.22434268121E+01  0.00000000000E+00 0. -1.
         13   -1    0    0    0    0 -0.00000000000E+00 -0.00000000000E+00 -0.10000000000E+04  0.10000000000E+04  0.00000000000E+00 0.  1.
    9000005    2    1    2  501    0 -0.56597283897E+01 -0.43821704716E+02 -0.67820778492E+03  0.67965421061E+03  0.34164509695E+01 0.  0.
         13    1    3    3    0    0 -0.54836295301E+01 -0.32010909733E+02 -0.50785904557E+03  0.50889643220E+03  0.00000000000E+00 0.  1.
          1    1    3    3  501    0 -0.17609885958E+00 -0.11810794984E+02 -0.17034873935E+03  0.17075777841E+03  0.00000000000E+00 0.  1.
         -3    1    1    2    0  502  0.56597283897E+01  0.43821704716E+02 -0.31954878827E+03  0.32258921621E+03  0.00000000000E+00 0. -1.
<mgrwt>
<rscale>  1 0.30000000E+03</rscale>
<asrwt>0</asrwt>
<pdfrwt beam="1">  1       21 0.81579329E-02 0.30000000E+03</pdfrwt>
<pdfrwt beam="2">0</pdfrwt>
<totfact> 0.12342449E+04</totfact>
</mgrwt>
</event>
<event>
 6    1  0.1273846E-001  0.3000000E+03  0.7818608E-02  0.1093470E+00
         21   -1    0    0  501  502  0.00000000000E+00  0.00000000000E+00  0.22232389647E+01  0.22232389647E+01  0.00000000000E+00 0. -1.
         13   -1    0    0    0    0 -0.00000000000E+00 -0.00000000000E+00 -0.10000000000E+04  0.10000000000E+04  0.00000000000E+00 0.  1.
    9000005    2    1    2  501    0 -0.22413543093E+02 -0.38212184707E+02 -0.66755908574E+03  0.66904723285E+03  0.51506168701E+01 0.  0.
         13    1    3    3    0    0 -0.14712823172E+02 -0.22492969421E+02 -0.43583405639E+03  0.43666202668E+03  0.00000000000E+00 0.  1.
          3    1    3    3  501    0 -0.77007199217E+01 -0.15719215287E+02 -0.23172502935E+03  0.23238520617E+03  0.00000000000E+00 0.  1.
         -3    1    1    2    0  502  0.22413543093E+02  0.38212184707E+02 -0.33021767529E+03  0.33317600611E+03  0.00000000000E+00 0. -1.
<mgrwt>
<rscale>  1 0.30000000E+03</rscale>
<asrwt>0</asrwt>
<pdfrwt beam="1">  1       21 0.80845224E-02 0.30000000E+03</pdfrwt>
<pdfrwt beam="2">0</pdfrwt>
<totfact> 0.12540154E+04</totfact>
</mgrwt>
</event>
<event>
 6    1  0.1273846E-001  0.3000000E+03  0.7818608E-02  0.1093470E+00
         21   -1    0    0  501  502  0.00000000000E+00  0.00000000000E+00  0.27312333255E+01  0.27312333255E+01  0.00000000000E+00 0. -1.
         13   -1    0    0    0    0 -0.00000000000E+00 -0.00000000000E+00 -0.10000000000E+04  0.10000000000E+04  0.00000000000E+00 0.  1.
    9000005    2    1    2  501    0  0.74567439858E+01  0.32079474875E+02 -0.11067431576E+03  0.11552527295E+03  0.35480672747E+01 0.  0.
         13    1    3    3    0    0  0.46369378075E+01  0.24920092148E+02 -0.81300446608E+02  0.85160288888E+02  0.00000000000E+00 0.  1.
          1    1    3    3  501    0  0.28198061783E+01  0.71593827269E+01 -0.29373869151E+02  0.30364984057E+02  0.00000000000E+00 0.  1.
         -3    1    1    2    0  502 -0.74567439858E+01 -0.32079474875E+02 -0.88659445092E+03  0.88720596038E+03  0.00000000000E+00 0. -1.
<mgrwt>
<rscale>  1 0.30000000E+03</rscale>
<asrwt>0</asrwt>
<pdfrwt beam="1">  1       21 0.99317785E-02 0.30000000E+03</pdfrwt>
<pdfrwt beam="2">0</pdfrwt>
<totfact> 0.87090553E+03</totfact>
</mgrwt>
</event>
<event>
 6    1  0.1273846E-001  0.3000000E+03  0.7818608E-02  0.1093470E+00
         21   -1    0    0  501  502  0.00000000000E+00  0.00000000000E+00  0.16439281615E+01  0.16439281615E+01  0.00000000000E+00 0. -1.
         13   -1    0    0    0    0 -0.00000000000E+00 -0.00000000000E+00 -0.10000000000E+04  0.10000000000E+04  0.00000000000E+00 0.  1.
    9000005    2    1    2  501    0  0.25995442754E+02  0.31031400306E+02 -0.48904338989E+03  0.49072503162E+03  0.29847303173E+01 0.  0.
         13    1    3    3    0    0  0.13636062418E+02  0.13995786814E+02 -0.23209783438E+03  0.23291893218E+03  0.00000000000E+00 0.  1.
          3    1    3    3  501    0  0.12359380336E+02  0.17035613492E+02 -0.25694555551E+03  0.25780609943E+03  0.00000000000E+00 0.  1.
         -3    1    1    2    0  502 -0.25995442754E+02 -0.31031400306E+02 -0.50931268195E+03  0.51091889654E+03  0.00000000000E+00 0. -1.
<mgrwt>
<rscale>  1 0.30000000E+03</rscale>
<asrwt>0</asrwt>
<pdfrwt beam="1">  1       21 0.59779332E-02 0.30000000E+03</pdfrwt>
<pdfrwt beam="2">0</pdfrwt>
<totfact> 0.21205983E+04</totfact>
</mgrwt>
</event>
<event>
 6    1  0.1273846E-001  0.3000000E+03  0.7818608E-02  0.1093470E+00
         21   -1    0    0  501  502  0.00000000000E+00  0.00000000000E+00  0.29413603673E+01  0.29413603673E+01  0.00000000000E+00 0. -1.
         13   -1    0    0    0    0 -0.00000000000E+00 -0.00000000000E+00 -0.10000000000E+04  0.10000000000E+04  0.00000000000E+00 0.  1.
    9000005    2    1    2  501    0  0.22630712226E+02  0.35439949929E+02 -0.18367465809E+03  0.18847120093E+03  0.41078422421E+01 0.  0.
         13    1    3    3    0    0  0.13699792732E+02  0.22006133643E+02 -0.10420642710E+03  0.10738218515E+03  0.00000000000E+00 0.  1.
          1    1    3    3  501    0  0.89309194933E+01  0.13433816287E+02 -0.79468230989E+02  0.81089015776E+02  0.00000000000E+00 0.  1.
         -3    1    1    2    0  502 -0.22630712226E+02 -0.35439949929E+02 -0.81338398155E+03  0.81447015944E+03  0.00000000000E+00 0. -1.
<mgrwt>
<rscale>  1 0.30000000E+03</rscale>
<asrwt>0</asrwt>
<pdfrwt beam="1">  1       21 0.10695878E-01 0.30000000E+03</pdfrwt>
<pdfrwt beam="2">0</pdfrwt>
<totfact> 0.76267657E+03</totfact>
</mgrwt>
</event>
<event>
 6    1  0.1273846E-001  0.3000000E+03  0.7818608E-02  0.1093470E+00
         21   -1    0    0  501  502  0.00000000000E+00  0.00000000000E+00  0.22788155818E+02  0.22788155818E+02  0.00000000000E+00 0. -1.
         13   -1    0    0    0    0 -0.00000000000E+00 -0.00000000000E+00 -0.10000000000E+04  0.10000000000E+04  0.00000000000E+00 0.  1.
    9000005    2    1    2  501    0  0.59659193334E+02 -0.24966720196E+02 -0.95066925654E+03  0.95288060669E+03  0.51825480493E+01 0.  0.
         13    1    3    3    0    0  0.44862322232E+02 -0.20581319742E+02 -0.70228994097E+03  0.70402228648E+03  0.00000000000E+00 0.  1.
          1    1    3    3  501    0  0.14796871102E+02 -0.43854004535E+01 -0.24837931557E+03  0.24885832021E+03  0.00000000000E+00 0.  1.
         -1    1    1    2    0  502 -0.59659193334E+02  0.24966720196E+02 -0.26542587642E+02  0.69907549130E+02  0.00000000000E+00 0. -1.
<mgrwt>
<rscale>  1 0.30000000E+03</rscale>
<asrwt>0</asrwt>
<pdfrwt beam="1">  1       21 0.82866196E-01 0.30000000E+03</pdfrwt>
<pdfrwt beam="2">0</pdfrwt>
<totfact> 0.11818394E+02</totfact>
</mgrwt>
</event>
<event>
 6    1  0.1273846E-001  0.3000000E+03  0.7818608E-02  0.1093470E+00
         21   -1    0    0  501  502  0.00000000000E+00  0.00000000000E+00  0.15372101642E+01  0.15372101642E+01  0.00000000000E+00 0. -1.
         13   -1    0    0    0    0 -0.00000000000E+00 -0.00000000000E+00 -0.10000000000E+04  0.10000000000E+04  0.00000000000E+00 0.  1.
    9000005    2    1    2  501    0  0.33511292363E+02 -0.17991448602E+02 -0.61696558615E+03  0.61814861441E+03  0.38047415015E+01 0.  0.
         13    1    3    3    0    0  0.85761300755E+01 -0.31288289781E+01 -0.13248069232E+03  0.13279485463E+03  0.00000000000E+00 0.  1.
          1    1    3    3  501    0  0.24935162287E+02 -0.14862619624E+02 -0.48448489383E+03  0.48535375978E+03  0.00000000000E+00 0.  1.
         -1    1    1    2    0  502 -0.33511292363E+02  0.17991448602E+02 -0.38149720368E+03  0.38338859576E+03  0.00000000000E+00 0. -1.
<mgrwt>
<rscale>  1 0.30000000E+03</rscale>
<asrwt>0</asrwt>
<pdfrwt beam="1">  1       21 0.55898669E-02 0.30000000E+03</pdfrwt>
<pdfrwt beam="2">0</pdfrwt>
<totfact> 0.23802962E+04</totfact>
</mgrwt>
</event>
<event>
 6    1  0.1273846E-001  0.3000000E+03  0.7818608E-02  0.1093470E+00
         21   -1    0    0  501  502  0.00000000000E+00  0.00000000000E+00  0.23239479292E+01  0.23239479292E+01  0.00000000000E+00 0. -1.
         13   -1    0    0    0    0 -0.00000000000E+00 -0.00000000000E+00 -0.10000000000E+04  0.10000000000E+04  0.00000000000E+00 0.  1.
    9000005    2    1    2  501    0 -0.30119108326E+02 -0.25533253615E+02 -0.78588673099E+03  0.78688526930E+03  0.33712557841E+01 0.  0.
         13    1    3    3    0    0 -0.25334387070E+02 -0.21351447831E+02 -0.63289610260E+03  0.63376272545E+03  0.00000000000E+00 0.  1.
          3    1    3    3  501    0 -0.47847212553E+01 -0.41818057848E+01 -0.15299062839E+03  0.15312254384E+03  0.00000000000E+00 0.  1.
         -1    1    1    2    0  502  0.30119108326E+02  0.25533253615E+02 -0.21178932108E+03  0.21543867863E+03  0.00000000000E+00 0. -1.
<mgrwt>
<rscale>  1 0.30000000E+03</rscale>
<asrwt>0</asrwt>
<pdfrwt beam="1">  1       21 0.84507376E-02 0.30000000E+03</pdfrwt>
<pdfrwt beam="2">0</pdfrwt>
<totfact> 0.11599519E+04</totfact>
</mgrwt>
</event>
<event>
 6    1  0.1273846E-001  0.3000000E+03  0.7818608E-02  0.1093470E+00
         21   -1    0    0  501  502  0.00000000000E+00  0.00000000000E+00  0.62953861132E+01  0.62953861132E+01  0.00000000000E+00 0. -1.
         13   -1    0    0    0    0 -0.00000000000E+00 -0.00000000000E+00 -0.10000000000E+04  0.10000000000E+04  0.00000000000E+00 0.  1.
    9000005    2    1    2  501    0 -0.80582217447E+01  0.71029891667E+02 -0.27971273917E+03  0.28873383641E+03  0.42227227441E+01 0.  0.
         13    1    3    3    0    0 -0.15731205805E+01  0.46538646804E+01 -0.20114006720E+02  0.20705227146E+02  0.00000000000E+00 0.  1.
          1    1    3    3  501    0 -0.64851011643E+01  0.66376026987E+02 -0.25959873245E+03  0.26802860927E+03  0.00000000000E+00 0.  1.
         -3    1    1    2    0  502  0.80582217447E+01 -0.71029891667E+02 -0.71399187471E+03  0.71756154970E+03  0.00000000000E+00 0. -1.
<mgrwt>
<rscale>  1 0.30000000E+03</rscale>
<asrwt>0</asrwt>
<pdfrwt beam="1">  1       21 0.22892361E-01 0.30000000E+03</pdfrwt>
<pdfrwt beam="2">0</pdfrwt>
<totfact> 0.18509976E+03</totfact>
</mgrwt>
</event>
<event>
 6    1  0.1273846E-001  0.3000000E+03  0.7818608E-02  0.1093470E+00
         21   -1    0    0  501  502  0.00000000000E+00  0.00000000000E+00  0.97933733109E+00  0.97933733109E+00  0.00000000000E+00 0. -1.
         13   -1    0    0    0    0 -0.00000000000E+00 -0.00000000000E+00 -0.10000000000E+04  0.10000000000E+04  0.00000000000E+00 0.  1.
    9000005    2    1    2  501    0  0.17968006001E+02  0.25342367165E+02 -0.55041703404E+03  0.55130134095E+03  0.30285896220E+01 0.  0.
         13    1    3    3    0    0  0.39072140430E+01  0.47017949251E+01 -0.12920497337E+03  0.12934952006E+03  0.00000000000E+00 0.  1.
          3    1    3    3  501    0  0.14060791958E+02  0.20640572240E+02 -0.42121206068E+03  0.42195182089E+03  0.00000000000E+00 0.  1.
         -1    1    1    2    0  502 -0.17968006001E+02 -0.25342367165E+02 -0.44860362862E+03  0.44967799638E+03  0.00000000000E+00 0. -1.
<mgrwt>
<rscale>  1 0.30000000E+03</rscale>
<asrwt>0</asrwt>
<pdfrwt beam="1">  1       21 0.35612342E-02 0.30000000E+03</pdfrwt>
<pdfrwt beam="2">0</pdfrwt>
<totfact> 0.51109731E+04</totfact>
</mgrwt>
</event>
<event>
 6    1  0.1273846E-001  0.3000000E+03  0.7818608E-02  0.1093470E+00
         21   -1    0    0  501  502  0.00000000000E+00  0.00000000000E+00  0.11035327145E+01  0.11035327145E+01  0.00000000000E+00 0. -1.
         13   -1    0    0    0    0 -0.00000000000E+00 -0.00000000000E+00 -0.10000000000E+04  0.10000000000E+04  0.00000000000E+00 0.  1.
    9000005    2    1    2  501    0 -0.18126080183E+02  0.27045761621E+02 -0.59373841160E+03  0.59463941611E+03  0.32719675576E+01 0.  0.
         13    1    3    3    0    0 -0.12576596081E+02  0.16260025993E+02 -0.35973295348E+03  0.36031979828E+03  0.00000000000E+00 0.  1.
          3    1    3    3  501    0 -0.55494841017E+01  0.10785735628E+02 -0.23400545812E+03  0.23431961783E+03  0.00000000000E+00 0.  1.
         -3    1    1    2    0  502  0.18126080183E+02 -0.27045761621E+02 -0.40515805568E+03  0.40646411661E+03  0.00000000000E+00 0. -1.
<mgrwt>
<rscale>  1 0.30000000E+03</rscale>
<asrwt>0</asrwt>
<pdfrwt beam="1">  1       21 0.40128547E-02 0.30000000E+03</pdfrwt>
<pdfrwt beam="2">0</pdfrwt>
<totfact> 0.41820726E+04</totfact>
</mgrwt>
</event>
<event>
 6    1  0.1273846E-001  0.3000000E+03  0.7818608E-02  0.1093470E+00
         21   -1    0    0  501  502  0.00000000000E+00  0.00000000000E+00  0.23084272320E+01  0.23084272320E+01  0.00000000000E+00 0. -1.
         13   -1    0    0    0    0 -0.00000000000E+00 -0.00000000000E+00 -0.10000000000E+04  0.10000000000E+04  0.00000000000E+00 0.  1.
    9000005    2    1    2  501    0  0.39354024304E+02 -0.13706942894E+02 -0.74752377216E+03  0.74869346716E+03  0.36740043536E+01 0.  0.
         13    1    3    3    0    0  0.28576969148E+02 -0.93241126669E+01 -0.56535719626E+03  0.56615575737E+03  0.00000000000E+00 0.  1.
          3    1    3    3  501    0  0.10777055156E+02 -0.43828302268E+01 -0.18216657590E+03  0.18253770979E+03  0.00000000000E+00 0.  1.
         -1    1    1    2    0  502 -0.39354024304E+02  0.13706942894E+02 -0.25016780061E+03  0.25361496007E+03  0.00000000000E+00 0. -1.
<mgrwt>
<rscale>  1 0.30000000E+03</rscale>
<asrwt>0</asrwt>
<pdfrwt beam="1">  1       21 0.83942985E-02 0.30000000E+03</pdfrwt>
<pdfrwt beam="2">0</pdfrwt>
<totfact> 0.11737305E+04</totfact>
</mgrwt>
</event>
<event>
 6    1  0.1273846E-001  0.3000000E+03  0.7818608E-02  0.1093470E+00
         21   -1    0    0  501  502  0.00000000000E+00  0.00000000000E+00  0.14393444583E+01  0.14393444583E+01  0.00000000000E+00 0. -1.
         13   -1    0    0    0    0 -0.00000000000E+00 -0.00000000000E+00 -0.10000000000E+04  0.10000000000E+04  0.00000000000E+00 0.  1.
    9000005    2    1    2  501    0  0.28806558383E+02  0.21513423477E+02 -0.34234119806E+03  0.34423570663E+03  0.28426458027E+01 0.  0.
         13    1    3    3    0    0  0.10532757822E+02  0.90126089667E+01 -0.12207880388E+03  0.12286334061E+03  0.00000000000E+00 0.  1.
          1    1    3    3  501    0  0.18273800560E+02  0.12500814510E+02 -0.22026239417E+03  0.22137236602E+03  0.00000000000E+00 0.  1.
         -1    1    1    2    0  502 -0.28806558383E+02 -0.21513423477E+02 -0.65621945749E+03  0.65720363783E+03  0.00000000000E+00 0. -1.
<mgrwt>
<rscale>  1 0.30000000E+03</rscale>
<asrwt>0</asrwt>
<pdfrwt beam="1">  1       21 0.52339909E-02 0.30000000E+03</pdfrwt>
<pdfrwt beam="2">0</pdfrwt>
<totfact> 0.26641633E+04</totfact>
</mgrwt>
</event>
<event>
 6    1  0.1273846E-001  0.3000000E+03  0.7818608E-02  0.1093470E+00
         21   -1    0    0  501  502  0.00000000000E+00  0.00000000000E+00  0.26338418586E+01  0.26338418586E+01  0.00000000000E+00 0. -1.
         13   -1    0    0    0    0 -0.00000000000E+00 -0.00000000000E+00 -0.10000000000E+04  0.10000000000E+04  0.00000000000E+00 0.  1.
    9000005    2    1    2  501    0 -0.29160750941E+02 -0.31315548895E+02 -0.77486162973E+03  0.77605211673E+03  0.39153106140E+01 0.  0.
         13    1    3    3    0    0 -0.27372441907E+02 -0.30554496307E+02 -0.74175407670E+03  0.74288756762E+03  0.00000000000E+00 0.  1.
          1    1    3    3  501    0 -0.17883090341E+01 -0.76105258833E+00 -0.33107553028E+02  0.33164549111E+02  0.00000000000E+00 0.  1.
         -1    1    1    2    0  502  0.29160750941E+02  0.31315548895E+02 -0.22250452841E+03  0.22658172513E+03  0.00000000000E+00 0. -1.
<mgrwt>
<rscale>  1 0.30000000E+03</rscale>
<asrwt>0</asrwt>
<pdfrwt beam="1">  1       21 0.95776270E-02 0.30000000E+03</pdfrwt>
<pdfrwt beam="2">0</pdfrwt>
<totfact> 0.92919817E+03</totfact>
</mgrwt>
</event>
<event>
 6    1  0.1273846E-001  0.3000000E+03  0.7818608E-02  0.1093470E+00
         21   -1    0    0  501  502  0.00000000000E+00  0.00000000000E+00  0.25427297351E+01  0.25427297351E+01  0.00000000000E+00 0. -1.
         13   -1    0    0    0    0 -0.00000000000E+00 -0.00000000000E+00 -0.10000000000E+04  0.10000000000E+04  0.00000000000E+00 0.  1.
    9000005    2    1    2  501    0  0.36435385434E+02  0.80105464190E+01 -0.83493304089E+03  0.83579192374E+03  0.65765382972E+01 0.  0.
         13    1    3    3    0    0 -0.12787628411E+00 -0.32734889086E+00 -0.11456499358E+02  0.11461888465E+02  0.00000000000E+00 0.  1.
          3    1    3    3  501    0  0.36563261718E+02  0.83378953099E+01 -0.82347654153E+03  0.82433003527E+03  0.00000000000E+00 0.  1.
         -1    1    1    2    0  502 -0.36435385434E+02 -0.80105464190E+01 -0.16252422938E+03  0.16675080600E+03  0.00000000000E+00 0. -1.
<mgrwt>
<rscale>  1 0.30000000E+03</rscale>
<asrwt>0</asrwt>
<pdfrwt beam="1">  1       21 0.92463094E-02 0.30000000E+03</pdfrwt>
<pdfrwt beam="2">0</pdfrwt>
<totfact> 0.98927398E+03</totfact>
</mgrwt>
</event>
<event>
 6    1  0.1273846E-001  0.3000000E+03  0.7818608E-02  0.1093470E+00
         21   -1    0    0  501  502  0.00000000000E+00  0.00000000000E+00  0.10719119885E+01  0.10719119885E+01  0.00000000000E+00 0. -1.
         13   -1    0    0    0    0 -0.00000000000E+00 -0.00000000000E+00 -0.10000000000E+04  0.10000000000E+04  0.00000000000E+00 0.  1.
    9000005    2    1    2  501    0  0.18209142481E+02  0.26668131745E+02 -0.57637883008E+03  0.57729055621E+03  0.30113805516E+01 0.  0.
         13    1    3    3    0    0  0.77399795612E+01  0.10433433852E+02 -0.20750771542E+03  0.20791396245E+03  0.00000000000E+00 0.  1.
          1    1    3    3  501    0  0.10469162920E+02  0.16234697893E+02 -0.36887111466E+03  0.36937659376E+03  0.00000000000E+00 0.  1.
         -3    1    1    2    0  502 -0.18209142481E+02 -0.26668131745E+02 -0.42254925794E+03  0.42378135578E+03  0.00000000000E+00 0. -1.
<mgrwt>
<rscale>  1 0.30000000E+03</rscale>
<asrwt>0</asrwt>
<pdfrwt beam="1">  1       21 0.38978700E-02 0.30000000E+03</pdfrwt>
<pdfrwt beam="2">0</pdfrwt>
<totfact> 0.43918004E+04</totfact>
</mgrwt>
</event>
<event>
 6    1  0.1273846E-001  0.3000000E+03  0.7818608E-02  0.1093470E+00
         21   -1    0    0  501  502  0.00000000000E+00  0.00000000000E+00  0.14414382941E+01  0.14414382941E+01  0.00000000000E+00 0. -1.
         13   -1    0    0    0    0 -0.00000000000E+00 -0.00000000000E+00 -0.10000000000E+04  0.10000000000E+04  0.00000000000E+00 0.  1.
    9000005    2    1    2  501    0 -0.32029857983E+02 -0.78652185988E+01 -0.25527230653E+03  0.25742381041E+03  0.39107825113E+01 0.  0.
         13    1    3    3    0    0 -0.18673367916E+02 -0.59599761490E+01 -0.14031609501E+03  0.14167858873E+03  0.00000000000E+00 0.  1.
          1    1    3    3  501    0 -0.13356490067E+02 -0.19052424498E+01 -0.11495621152E+03  0.11574522169E+03  0.00000000000E+00 0.  1.
         -1    1    1    2    0  502  0.32029857983E+02  0.78652185988E+01 -0.74328625517E+03  0.74401762788E+03  0.00000000000E+00 0. -1.
<mgrwt>
<rscale>  1 0.30000000E+03</rscale>
<asrwt>0</asrwt>
<pdfrwt beam="1">  1       21 0.52416048E-02 0.30000000E+03</pdfrwt>
<pdfrwt beam="2">0</pdfrwt>
<totfact> 0.26575527E+04</totfact>
</mgrwt>
</event>
<event>
 6    1  0.1273846E-001  0.3000000E+03  0.7818608E-02  0.1093470E+00
         21   -1    0    0  501  502  0.00000000000E+00  0.00000000000E+00  0.18420487440E+01  0.18420487440E+01  0.00000000000E+00 0. -1.
         13   -1    0    0    0    0 -0.00000000000E+00 -0.00000000000E+00 -0.10000000000E+04  0.10000000000E+04  0.00000000000E+00 0.  1.
    9000005    2    1    2  501    0 -0.11475185675E+02 -0.29719020564E+02 -0.83451930795E+03  0.83513120430E+03  0.25986531130E+01 0.  0.
         13    1    3    3    0    0 -0.18564558207E+01 -0.47178020050E+01 -0.15957991878E+03  0.15966043518E+03  0.00000000000E+00 0.  1.
          1    1    3    3  501    0 -0.96187298539E+01 -0.25001218559E+02 -0.67493938916E+03  0.67547076912E+03  0.00000000000E+00 0.  1.
         -1    1    1    2    0  502  0.11475185675E+02  0.29719020564E+02 -0.16363864331E+03  0.16671084444E+03  0.00000000000E+00 0. -1.
<mgrwt>
<rscale>  1 0.30000000E+03</rscale>
<asrwt>0</asrwt>
<pdfrwt beam="1">  1       21 0.66983732E-02 0.30000000E+03</pdfrwt>
<pdfrwt beam="2">0</pdfrwt>
<totfact> 0.17418516E+04</totfact>
</mgrwt>
</event>
<event>
 6    1  0.1273846E-001  0.3000000E+03  0.7818608E-02  0.1093470E+00
         21   -1    0    0  501  502  0.00000000000E+00  0.00000000000E+00  0.40731460352E+01  0.40731460352E+01  0.00000000000E+00 0. -1.
         13   -1    0    0    0    0 -0.00000000000E+00 -0.00000000000E+00 -0.10000000000E+04  0.10000000000E+04  0.00000000000E+00 0.  1.
    9000005    2    1    2  501    0  0.18051515163E+02 -0.51330507982E+02 -0.76014924622E+03  0.76209843958E+03  0.25449625997E+01 0.  0.
         13    1    3    3    0    0  0.13932551471E+02 -0.36320098382E+02 -0.54781517276E+03  0.54919461855E+03  0.00000000000E+00 0.  1.
          3    1    3    3  501    0  0.41189636923E+01 -0.15010409600E+02 -0.21233407345E+03  0.21290382103E+03  0.00000000000E+00 0.  1.
         -1    1    1    2    0  502 -0.18051515163E+02  0.51330507982E+02 -0.23577760775E+03  0.24197470646E+03  0.00000000000E+00 0. -1.
<mgrwt>
<rscale>  1 0.30000000E+03</rscale>
<asrwt>0</asrwt>
<pdfrwt beam="1">  1       21 0.14811471E-01 0.30000000E+03</pdfrwt>
<pdfrwt beam="2">0</pdfrwt>
<totfact> 0.42155049E+03</totfact>
</mgrwt>
</event>
<event>
 6    1  0.1273846E-001  0.3000000E+03  0.7818608E-02  0.1093470E+00
         21   -1    0    0  501  502  0.00000000000E+00  0.00000000000E+00  0.12298536576E+01  0.12298536576E+01  0.00000000000E+00 0. -1.
         13   -1    0    0    0    0 -0.00000000000E+00 -0.00000000000E+00 -0.10000000000E+04  0.10000000000E+04  0.00000000000E+00 0.  1.
    9000005    2    1    2  501    0  0.27214122534E+02  0.14317539145E+02 -0.26334412082E+03  0.26516121596E+03  0.38398026311E+01 0.  0.
         13    1    3    3    0    0  0.10860510031E+02  0.71918004760E+01 -0.99556019700E+02  0.10040455035E+03  0.00000000000E+00 0.  1.
          1    1    3    3  501    0  0.16353612503E+02  0.71257386692E+01 -0.16378810112E+03  0.16475666561E+03  0.00000000000E+00 0.  1.
         -3    1    1    2    0  502 -0.27214122534E+02 -0.14317539145E+02 -0.73542602552E+03  0.73606863770E+03  0.00000000000E+00 0. -1.
<mgrwt>
<rscale>  1 0.30000000E+03</rscale>
<asrwt>0</asrwt>
<pdfrwt beam="1">  1       21 0.44722045E-02 0.30000000E+03</pdfrwt>
<pdfrwt beam="2">0</pdfrwt>
<totfact> 0.34822299E+04</totfact>
</mgrwt>
</event>
<event>
 6    1  0.1273846E-001  0.3000000E+03  0.7818608E-02  0.1093470E+00
         21   -1    0    0  501  502  0.00000000000E+00  0.00000000000E+00  0.35590962831E+01  0.35590962831E+01  0.00000000000E+00 0. -1.
         13   -1    0    0    0    0 -0.00000000000E+00 -0.00000000000E+00 -0.10000000000E+04  0.10000000000E+04  0.00000000000E+00 0.  1.
    9000005    2    1    2  501    0  0.24456836083E+02 -0.41415199386E+02 -0.79488764635E+03  0.79634647330E+03  0.28248246268E+01 0.  0.
         13    1    3    3    0    0  0.12854841585E+02 -0.21676438333E+02 -0.39312418910E+03  0.39393113990E+03  0.00000000000E+00 0.  1.
          1    1    3    3  501    0  0.11601994498E+02 -0.19738761053E+02 -0.40176345725E+03  0.40241533339E+03  0.00000000000E+00 0.  1.
         -3    1    1    2    0  502 -0.24456836083E+02  0.41415199386E+02 -0.20155325736E+03  0.20721262299E+03  0.00000000000E+00 0. -1.
<mgrwt>
<rscale>  1 0.30000000E+03</rscale>
<asrwt>0</asrwt>
<pdfrwt beam="1">  1       21 0.12942196E-01 0.30000000E+03</pdfrwt>
<pdfrwt beam="2">0</pdfrwt>
<totfact> 0.54002868E+03</totfact>
</mgrwt>
</event>
<event>
 6    1  0.1273846E-001  0.3000000E+03  0.7818608E-02  0.1093470E+00
         21   -1    0    0  501  502  0.00000000000E+00  0.00000000000E+00  0.21370090681E+01  0.21370090681E+01  0.00000000000E+00 0. -1.
         13   -1    0    0    0    0 -0.00000000000E+00 -0.00000000000E+00 -0.10000000000E+04  0.10000000000E+04  0.00000000000E+00 0.  1.
    9000005    2    1    2  501    0 -0.30322240213E+02 -0.31228679948E+02 -0.66093101507E+03  0.66240501902E+03  0.74788930032E+01 0.  0.
         13    1    3    3    0    0 -0.17184742857E+02 -0.22033732840E+02 -0.44851656972E+03  0.44938615253E+03  0.00000000000E+00 0.  1.
          1    1    3    3  501    0 -0.13137497356E+02 -0.91949471076E+01 -0.21241444535E+03  0.21301886649E+03  0.00000000000E+00 0.  1.
         -3    1    1    2    0  502  0.30322240213E+02  0.31228679948E+02 -0.33693197586E+03  0.33973199004E+03  0.00000000000E+00 0. -1.
<mgrwt>
<rscale>  1 0.30000000E+03</rscale>
<asrwt>0</asrwt>
<pdfrwt beam="1">  1       21 0.77709585E-02 0.30000000E+03</pdfrwt>
<pdfrwt beam="2">0</pdfrwt>
<totfact> 0.13441983E+04</totfact>
</mgrwt>
</event>
<event>
 6    1  0.1273846E-001  0.3000000E+03  0.7818608E-02  0.1093470E+00
         21   -1    0    0  501  502  0.00000000000E+00  0.00000000000E+00  0.21854582670E+01  0.21854582670E+01  0.00000000000E+00 0. -1.
         13   -1    0    0    0    0 -0.00000000000E+00 -0.00000000000E+00 -0.10000000000E+04  0.10000000000E+04  0.00000000000E+00 0.  1.
    9000005    2    1    2  501    0  0.14907344689E+02 -0.29932488029E+02 -0.84877447791E+03  0.84944016901E+03  0.35076507858E+01 0.  0.
         13    1    3    3    0    0  0.44536013335E+01 -0.87756046550E+01 -0.29206962184E+03  0.29223536714E+03  0.00000000000E+00 0.  1.
          1    1    3    3  501    0  0.10453743356E+02 -0.21156883374E+02 -0.55670485607E+03  0.55720480187E+03  0.00000000000E+00 0.  1.
         -1    1    1    2    0  502 -0.14907344689E+02  0.29932488029E+02 -0.14904006382E+03  0.15274528925E+03  0.00000000000E+00 0. -1.
<mgrwt>
<rscale>  1 0.30000000E+03</rscale>
<asrwt>0</asrwt>
<pdfrwt beam="1">  1       21 0.79471377E-02 0.30000000E+03</pdfrwt>
<pdfrwt beam="2">0</pdfrwt>
<totfact> 0.12923459E+04</totfact>
</mgrwt>
</event>
<event>
 6    1  0.1273846E-001  0.3000000E+03  0.7818608E-02  0.1093470E+00
         21   -1    0    0  501  502  0.00000000000E+00  0.00000000000E+00  0.24835368229E+01  0.24835368229E+01  0.00000000000E+00 0. -1.
         13   -1    0    0    0    0 -0.00000000000E+00 -0.00000000000E+00 -0.10000000000E+04  0.10000000000E+04  0.00000000000E+00 0.  1.
    9000005    2    1    2  501    0 -0.19418175890E+02 -0.42512412381E+02 -0.66610050104E+03  0.66778828630E+03  0.81821193144E+01 0.  0.
         13    1    3    3    0    0 -0.13961663846E+01 -0.94433457438E+00 -0.11637732945E+02  0.11759161384E+02  0.00000000000E+00 0.  1.
          1    1    3    3  501    0 -0.18022009505E+02 -0.41568077806E+02 -0.65446276809E+03  0.65602912492E+03  0.00000000000E+00 0.  1.
         -3    1    1    2    0  502  0.19418175890E+02  0.42512412381E+02 -0.33141596214E+03  0.33469525052E+03  0.00000000000E+00 0. -1.
<mgrwt>
<rscale>  1 0.30000000E+03</rscale>
<asrwt>0</asrwt>
<pdfrwt beam="1">  1       21 0.90310620E-02 0.30000000E+03</pdfrwt>
<pdfrwt beam="2">0</pdfrwt>
<totfact> 0.10314924E+04</totfact>
</mgrwt>
</event>
<event>
 6    1  0.1273846E-001  0.3000000E+03  0.7818608E-02  0.1093470E+00
         21   -1    0    0  501  502  0.00000000000E+00  0.00000000000E+00  0.23971945257E+01  0.23971945257E+01  0.00000000000E+00 0. -1.
         13   -1    0    0    0    0 -0.00000000000E+00 -0.00000000000E+00 -0.10000000000E+04  0.10000000000E+04  0.00000000000E+00 0.  1.
    9000005    2    1    2  501    0  0.42150329130E+02 -0.17898262460E+01 -0.75261034210E+03  0.75379880186E+03  0.32330994336E+01 0.  0.
         13    1    3    3    0    0  0.87018406724E+01 -0.34515287173E-02 -0.13398354692E+03  0.13426582919E+03  0.00000000000E+00 0.  1.
          3    1    3    3  501    0  0.33448488458E+02 -0.17863747173E+01 -0.61862679518E+03  0.61953297267E+03  0.00000000000E+00 0.  1.
         -1    1    1    2    0  502 -0.42150329130E+02  0.17898262460E+01 -0.24499246338E+03  0.24859839267E+03  0.00000000000E+00 0. -1.
<mgrwt>
<rscale>  1 0.30000000E+03</rscale>
<asrwt>0</asrwt>
<pdfrwt beam="1">  1       21 0.87170894E-02 0.30000000E+03</pdfrwt>
<pdfrwt beam="2">0</pdfrwt>
<totfact> 0.10981400E+04</totfact>
</mgrwt>
</event>
<event>
 6    1  0.1273846E-001  0.3000000E+03  0.7818608E-02  0.1093470E+00
         21   -1    0    0  501  502  0.00000000000E+00  0.00000000000E+00  0.14316093554E+01  0.14316093554E+01  0.00000000000E+00 0. -1.
         13   -1    0    0    0    0 -0.00000000000E+00 -0.00000000000E+00 -0.10000000000E+04  0.10000000000E+04  0.00000000000E+00 0.  1.
    9000005    2    1    2  501    0 -0.32103493601E+02  0.18661967257E+02 -0.59192160963E+03  0.59309289231E+03  0.30139088094E+01 0.  0.
         13    1    3    3    0    0 -0.66999015221E+01  0.26521624738E+01 -0.10665094918E+03  0.10689409528E+03  0.00000000000E+00 0.  1.
          3    1    3    3  501    0 -0.25403592079E+02  0.16009804783E+02 -0.48527066045E+03  0.48619879703E+03  0.00000000000E+00 0.  1.
         -1    1    1    2    0  502  0.32103493601E+02 -0.18661967257E+02 -0.40664678102E+03  0.40833871704E+03  0.00000000000E+00 0. -1.
<mgrwt>
<rscale>  1 0.30000000E+03</rscale>
<asrwt>0</asrwt>
<pdfrwt beam="1">  1       21 0.52058632E-02 0.30000000E+03</pdfrwt>
<pdfrwt beam="2">0</pdfrwt>
<totfact> 0.26888069E+04</totfact>
</mgrwt>
</event>
<event>
 6    1  0.1273846E-001  0.3000000E+03  0.7818608E-02  0.1093470E+00
         21   -1    0    0  501  502  0.00000000000E+00  0.00000000000E+00  0.96228022042E+00  0.96228022042E+00  0.00000000000E+00 0. -1.
         13   -1    0    0    0    0 -0.00000000000E+00 -0.00000000000E+00 -0.10000000000E+04  0.10000000000E+04  0.00000000000E+00 0.  1.
    9000005    2    1    2  501    0 -0.50506852810E+01 -0.29916007682E+02 -0.40259496238E+03  0.40374838236E+03  0.30944451834E+01 0.  0.
         13    1    3    3    0    0 -0.29138504199E+01 -0.89316288887E+01 -0.11959045826E+03  0.11995891891E+03  0.00000000000E+00 0.  1.
          3    1    3    3  501    0 -0.21368348611E+01 -0.20984378794E+02 -0.28300450412E+03  0.28378946346E+03  0.00000000000E+00 0.  1.
         -1    1    1    2    0  502  0.50506852810E+01  0.29916007682E+02 -0.59644275740E+03  0.59721389786E+03  0.00000000000E+00 0. -1.
<mgrwt>
<rscale>  1 0.30000000E+03</rscale>
<asrwt>0</asrwt>
<pdfrwt beam="1">  1       21 0.34992082E-02 0.30000000E+03</pdfrwt>
<pdfrwt beam="2">0</pdfrwt>
<totfact> 0.52636745E+04</totfact>
</mgrwt>
</event>
<event>
 6    1  0.1273846E-001  0.3000000E+03  0.7818608E-02  0.1093470E+00
         21   -1    0    0  501  502  0.00000000000E+00  0.00000000000E+00  0.14497367334E+01  0.14497367334E+01  0.00000000000E+00 0. -1.
         13   -1    0    0    0    0 -0.00000000000E+00 -0.00000000000E+00 -0.10000000000E+04  0.10000000000E+04  0.00000000000E+00 0.  1.
    9000005    2    1    2  501    0 -0.20918284518E+02  0.26794429364E+02 -0.72360842088E+03  0.72441448128E+03  0.34172854556E+01 0.  0.
         13    1    3    3    0    0 -0.16905316687E+02  0.19276349044E+02 -0.54720637235E+03  0.54780670068E+03  0.00000000000E+00 0.  1.
          3    1    3    3  501    0 -0.40129678305E+01  0.75180803202E+01 -0.17640204853E+03  0.17660778060E+03  0.00000000000E+00 0.  1.
         -1    1    1    2    0  502  0.20918284518E+02 -0.26794429364E+02 -0.27494184239E+03  0.27703525546E+03  0.00000000000E+00 0. -1.
<mgrwt>
<rscale>  1 0.30000000E+03</rscale>
<asrwt>0</asrwt>
<pdfrwt beam="1">  1       21 0.52717811E-02 0.30000000E+03</pdfrwt>
<pdfrwt beam="2">0</pdfrwt>
<totfact> 0.26316013E+04</totfact>
</mgrwt>
</event>
<event>
 6    1  0.1273846E-001  0.3000000E+03  0.7818608E-02  0.1093470E+00
         21   -1    0    0  501  502  0.00000000000E+00  0.00000000000E+00  0.15684173188E+01  0.15684173188E+01  0.00000000000E+00 0. -1.
         13   -1    0    0    0    0 -0.00000000000E+00 -0.00000000000E+00 -0.10000000000E+04  0.10000000000E+04  0.00000000000E+00 0.  1.
    9000005    2    1    2  501    0  0.38252541126E+02 -0.68955362224E+01 -0.40880612206E+03  0.41066318876E+03  0.33172049038E+01 0.  0.
         13    1    3    3    0    0  0.28151726710E+02 -0.35822020599E+01 -0.29591138229E+03  0.29726906676E+03  0.00000000000E+00 0.  1.
          1    1    3    3  501    0  0.10100814416E+02 -0.33133341625E+01 -0.11289473977E+03  0.11339412200E+03  0.00000000000E+00 0.  1.
         -3    1    1    2    0  502 -0.38252541126E+02  0.68955362224E+01 -0.58962546062E+03  0.59090522856E+03  0.00000000000E+00 0. -1.
<mgrwt>
<rscale>  1 0.30000000E+03</rscale>
<asrwt>0</asrwt>
<pdfrwt beam="1">  1       21 0.57033477E-02 0.30000000E+03</pdfrwt>
<pdfrwt beam="2">0</pdfrwt>
<totfact> 0.22995032E+04</totfact>
</mgrwt>
</event>
<event>
 6    1  0.1273846E-001  0.3000000E+03  0.7818608E-02  0.1093470E+00
         21   -1    0    0  501  502  0.00000000000E+00  0.00000000000E+00  0.62734552740E+01  0.62734552740E+01  0.00000000000E+00 0. -1.
         13   -1    0    0    0    0 -0.00000000000E+00 -0.00000000000E+00 -0.10000000000E+04  0.10000000000E+04  0.00000000000E+00 0.  1.
    9000005    2    1    2  501    0  0.27008201250E+02 -0.28659634468E+02 -0.93334294974E+03  0.93418326089E+03  0.42994789345E+01 0.  0.
         13    1    3    3    0    0  0.56647239137E+01 -0.61075113137E+01 -0.24209339815E+03  0.24223666985E+03  0.00000000000E+00 0.  1.
          3    1    3    3  501    0  0.21343477336E+02 -0.22552123154E+02 -0.69124955159E+03  0.69194659104E+03  0.00000000000E+00 0.  1.
         -3    1    1    2    0  502 -0.27008201250E+02  0.28659634468E+02 -0.60383594985E+02  0.72090194381E+02  0.00000000000E+00 0. -1.
<mgrwt>
<rscale>  1 0.30000000E+03</rscale>
<asrwt>0</asrwt>
<pdfrwt beam="1">  1       21 0.22812613E-01 0.30000000E+03</pdfrwt>
<pdfrwt beam="2">0</pdfrwt>
<totfact> 0.18635288E+03</totfact>
</mgrwt>
</event>
<event>
 6    1  0.1273846E-001  0.3000000E+03  0.7818608E-02  0.1093470E+00
         21   -1    0    0  501  502  0.00000000000E+00  0.00000000000E+00  0.26644636168E+01  0.26644636168E+01  0.00000000000E+00 0. -1.
         13   -1    0    0    0    0 -0.00000000000E+00 -0.00000000000E+00 -0.10000000000E+04  0.10000000000E+04  0.00000000000E+00 0.  1.
    9000005    2    1    2  501    0 -0.33344961653E+02 -0.19987163983E+02 -0.82819073413E+03  0.82910946564E+03  0.33527200802E+01 0.  0.
         13    1    3    3    0    0 -0.56332714091E+01 -0.43196171486E+01 -0.13069407225E+03  0.13088671957E+03  0.00000000000E+00 0.  1.
          1    1    3    3  501    0 -0.27711690243E+02 -0.15667546834E+02 -0.69749666188E+03  0.69822274607E+03  0.00000000000E+00 0.  1.
         -1    1    1    2    0  502  0.33344961653E+02  0.19987163983E+02 -0.16914480226E+03  0.17355499797E+03  0.00000000000E+00 0. -1.
<mgrwt>
<rscale>  1 0.30000000E+03</rscale>
<asrwt>0</asrwt>
<pdfrwt beam="1">  1       21 0.96889790E-02 0.30000000E+03</pdfrwt>
<pdfrwt beam="2">0</pdfrwt>
<totfact> 0.91024173E+03</totfact>
</mgrwt>
</event>
<event>
 6    1  0.1273846E-001  0.3000000E+03  0.7818608E-02  0.1093470E+00
         21   -1    0    0  501  502  0.00000000000E+00  0.00000000000E+00  0.31855774965E+01  0.31855774965E+01  0.00000000000E+00 0. -1.
         13   -1    0    0    0    0 -0.00000000000E+00 -0.00000000000E+00 -0.10000000000E+04  0.10000000000E+04  0.00000000000E+00 0.  1.
    9000005    2    1    2  501    0 -0.44140103518E+02 -0.27528715968E+02 -0.69229662718E+03  0.69425635161E+03  0.33290835140E+01 0.  0.
         13    1    3    3    0    0 -0.37133732125E+02 -0.21858738073E+02 -0.56427186105E+03  0.56591470352E+03  0.00000000000E+00 0.  1.
          1    1    3    3  501    0 -0.70063713932E+01 -0.56699778953E+01 -0.12802476614E+03  0.12834164809E+03  0.00000000000E+00 0.  1.
         -1    1    1    2    0  502  0.44140103518E+02  0.27528715968E+02 -0.30451779532E+03  0.30892922589E+03  0.00000000000E+00 0. -1.
<mgrwt>
<rscale>  1 0.30000000E+03</rscale>
<asrwt>0</asrwt>
<pdfrwt beam="1">  1       21 0.11583943E-01 0.30000000E+03</pdfrwt>
<pdfrwt beam="2">0</pdfrwt>
<totfact> 0.66061506E+03</totfact>
</mgrwt>
</event>
<event>
 6    1  0.1273846E-001  0.3000000E+03  0.7818608E-02  0.1093470E+00
         21   -1    0    0  501  502  0.00000000000E+00  0.00000000000E+00  0.20199482908E+01  0.20199482908E+01  0.00000000000E+00 0. -1.
         13   -1    0    0    0    0 -0.00000000000E+00 -0.00000000000E+00 -0.10000000000E+04  0.10000000000E+04  0.00000000000E+00 0.  1.
    9000005    2    1    2  501    0 -0.76733108718E+01 -0.38417865304E+02 -0.74345342507E+03  0.74449593826E+03  0.40490446445E+01 0.  0.
         13    1    3    3    0    0 -0.28838923978E+01 -0.95521485120E+01 -0.16239631175E+03  0.16270255820E+03  0.00000000000E+00 0.  1.
          3    1    3    3  501    0 -0.47894184740E+01 -0.28865716792E+02 -0.58105711333E+03  0.58179338006E+03  0.00000000000E+00 0.  1.
         -3    1    1    2    0  502  0.76733108718E+01  0.38417865304E+02 -0.25452662664E+03  0.25752401003E+03  0.00000000000E+00 0. -1.
<mgrwt>
<rscale>  1 0.30000000E+03</rscale>
<asrwt>0</asrwt>
<pdfrwt beam="1">  1       21 0.73452820E-02 0.30000000E+03</pdfrwt>
<pdfrwt beam="2">0</pdfrwt>
<totfact> 0.14835763E+04</totfact>
</mgrwt>
</event>
<event>
 6    1  0.1273846E-001  0.3000000E+03  0.7818608E-02  0.1093470E+00
         21   -1    0    0  501  502  0.00000000000E+00  0.00000000000E+00  0.13331203802E+01  0.13331203802E+01  0.00000000000E+00 0. -1.
         13   -1    0    0    0    0 -0.00000000000E+00 -0.00000000000E+00 -0.10000000000E+04  0.10000000000E+04  0.00000000000E+00 0.  1.
    9000005    2    1    2  501    0  0.31282823695E+02  0.51475221704E+01 -0.74658112286E+03  0.74726159343E+03  0.33769764808E+01 0.  0.
         13    1    3    3    0    0  0.56481242757E+01  0.15448502069E+00 -0.15897618376E+03  0.15907656074E+03  0.00000000000E+00 0.  1.
          1    1    3    3  501    0  0.25634699420E+02  0.49930371497E+01 -0.58760493909E+03  0.58818503269E+03  0.00000000000E+00 0.  1.
         -1    1    1    2    0  502 -0.31282823695E+02 -0.51475221704E+01 -0.25208575676E+03  0.25407152695E+03  0.00000000000E+00 0. -1.
<mgrwt>
<rscale>  1 0.30000000E+03</rscale>
<asrwt>0</asrwt>
<pdfrwt beam="1">  1       21 0.48477207E-02 0.30000000E+03</pdfrwt>
<pdfrwt beam="2">0</pdfrwt>
<totfact> 0.30362994E+04</totfact>
</mgrwt>
</event>
<event>
 6    1  0.1273846E-001  0.3000000E+03  0.7818608E-02  0.1093470E+00
         21   -1    0    0  501  502  0.00000000000E+00  0.00000000000E+00  0.16142426219E+01  0.16142426219E+01  0.00000000000E+00 0. -1.
         13   -1    0    0    0    0 -0.00000000000E+00 -0.00000000000E+00 -0.10000000000E+04  0.10000000000E+04  0.00000000000E+00 0.  1.
    9000005    2    1    2  501    0 -0.32644245738E+02 -0.16180701247E+02 -0.70251713408E+03  0.70351073018E+03  0.83403802252E+01 0.  0.
         13    1    3    3    0    0 -0.37676049723E+01 -0.49774381269E+01 -0.14425020928E+03  0.14438522298E+03  0.00000000000E+00 0.  1.
          3    1    3    3  501    0 -0.28876640766E+02 -0.11203263120E+02 -0.55826692480E+03  0.55912550721E+03  0.00000000000E+00 0.  1.
         -1    1    1    2    0  502  0.32644245738E+02  0.16180701247E+02 -0.29586862330E+03  0.29810351244E+03  0.00000000000E+00 0. -1.
<mgrwt>
<rscale>  1 0.30000000E+03</rscale>
<asrwt>0</asrwt>
<pdfrwt beam="1">  1       21 0.58699855E-02 0.30000000E+03</pdfrwt>
<pdfrwt beam="2">0</pdfrwt>
<totfact> 0.21882686E+04</totfact>
</mgrwt>
</event>
<event>
 6    1  0.1273846E-001  0.3000000E+03  0.7818608E-02  0.1093470E+00
         21   -1    0    0  501  502  0.00000000000E+00  0.00000000000E+00  0.13163528852E+01  0.13163528852E+01  0.00000000000E+00 0. -1.
         13   -1    0    0    0    0 -0.00000000000E+00 -0.00000000000E+00 -0.10000000000E+04  0.10000000000E+04  0.00000000000E+00 0.  1.
    9000005    2    1    2  501    0  0.36153566883E+02  0.18135250063E+01 -0.50895869156E+03  0.51025535732E+03  0.33482367001E+01 0.  0.
         13    1    3    3    0    0  0.28121958431E+02  0.13090239523E+01 -0.37509645612E+03  0.37615144487E+03  0.00000000000E+00 0.  1.
          3    1    3    3  501    0  0.80316084521E+01  0.50450105394E+00 -0.13386223544E+03  0.13410391244E+03  0.00000000000E+00 0.  1.
         -1    1    1    2    0  502 -0.36153566883E+02 -0.18135250063E+01 -0.48972495556E+03  0.49106099557E+03  0.00000000000E+00 0. -1.
<mgrwt>
<rscale>  1 0.30000000E+03</rscale>
<asrwt>0</asrwt>
<pdfrwt beam="1">  1       21 0.47867479E-02 0.30000000E+03</pdfrwt>
<pdfrwt beam="2">0</pdfrwt>
<totfact> 0.31024141E+04</totfact>
</mgrwt>
</event>
<event>
 6    1  0.1273846E-001  0.3000000E+03  0.7818608E-02  0.1093470E+00
         21   -1    0    0  501  502  0.00000000000E+00  0.00000000000E+00  0.11362128613E+01  0.11362128613E+01  0.00000000000E+00 0. -1.
         13   -1    0    0    0    0 -0.00000000000E+00 -0.00000000000E+00 -0.10000000000E+04  0.10000000000E+04  0.00000000000E+00 0.  1.
    9000005    2    1    2  501    0  0.32525947481E+02  0.69053354415E+01 -0.43086510635E+03  0.43216510437E+03  0.40393873561E+01 0.  0.
         13    1    3    3    0    0  0.20375112843E+02  0.23364958481E+01 -0.26757664389E+03  0.26836144431E+03  0.00000000000E+00 0.  1.
          3    1    3    3  501    0  0.12150834638E+02  0.45688395934E+01 -0.16328846246E+03  0.16380366007E+03  0.00000000000E+00 0.  1.
         -1    1    1    2    0  502 -0.32525947481E+02 -0.69053354415E+01 -0.56799868079E+03  0.56897110849E+03  0.00000000000E+00 0. -1.
<mgrwt>
<rscale>  1 0.30000000E+03</rscale>
<asrwt>0</asrwt>
<pdfrwt beam="1">  1       21 0.41316918E-02 0.30000000E+03</pdfrwt>
<pdfrwt beam="2">0</pdfrwt>
<totfact> 0.39813213E+04</totfact>
</mgrwt>
</event>
<event>
 6    1  0.1273846E-001  0.3000000E+03  0.7818608E-02  0.1093470E+00
         21   -1    0    0  501  502  0.00000000000E+00  0.00000000000E+00  0.27815612555E+01  0.27815612555E+01  0.00000000000E+00 0. -1.
         13   -1    0    0    0    0 -0.00000000000E+00 -0.00000000000E+00 -0.10000000000E+04  0.10000000000E+04  0.00000000000E+00 0.  1.
    9000005    2    1    2  501    0 -0.40239139815E+02  0.25047862259E+02 -0.28297298060E+03  0.28696513350E+03  0.53568940066E+01 0.  0.
         13    1    3    3    0    0 -0.16035527531E+02  0.77624151942E+01 -0.11693095344E+03  0.11828034962E+03  0.00000000000E+00 0.  1.
          1    1    3    3  501    0 -0.24203612284E+02  0.17285447064E+02 -0.16604202716E+03  0.16868478388E+03  0.00000000000E+00 0.  1.
         -1    1    1    2    0  502  0.40239139815E+02 -0.25047862259E+02 -0.71424545814E+03  0.71581642776E+03  0.00000000000E+00 0. -1.
<mgrwt>
<rscale>  1 0.30000000E+03</rscale>
<asrwt>0</asrwt>
<pdfrwt beam="1">  1       21 0.10114790E-01 0.30000000E+03</pdfrwt>
<pdfrwt beam="2">0</pdfrwt>
<totfact> 0.84294603E+03</totfact>
</mgrwt>
</event>
<event>
 6    1  0.1273846E-001  0.3000000E+03  0.7818608E-02  0.1093470E+00
         21   -1    0    0  501  502  0.00000000000E+00  0.00000000000E+00  0.79016740300E+01  0.79016740300E+01  0.00000000000E+00 0. -1.
         13   -1    0    0    0    0 -0.00000000000E+00 -0.00000000000E+00 -0.10000000000E+04  0.10000000000E+04  0.00000000000E+00 0.  1.
    9000005    2    1    2  501    0 -0.17555726905E+02  0.44181689043E+02 -0.92178146448E+03  0.92302125106E+03  0.51900340550E+01 0.  0.
         13    1    3    3    0    0 -0.40753950226E+01  0.94514256733E+01 -0.24352214688E+03  0.24373956247E+03  0.00000000000E+00 0.  1.
          1    1    3    3  501    0 -0.13480331883E+02  0.34730263370E+02 -0.67825931761E+03  0.67928168860E+03  0.00000000000E+00 0.  1.
         -1    1    1    2    0  502  0.17555726905E+02 -0.44181689043E+02 -0.70316861487E+02  0.84880422968E+02  0.00000000000E+00 0. -1.
<mgrwt>
<rscale>  1 0.30000000E+03</rscale>
<asrwt>0</asrwt>
<pdfrwt beam="1">  1       21 0.28733421E-01 0.30000000E+03</pdfrwt>
<pdfrwt beam="2">0</pdfrwt>
<totfact> 0.11849678E+03</totfact>
</mgrwt>
</event>
<event>
 6    1  0.1273846E-001  0.3000000E+03  0.7818608E-02  0.1093470E+00
         21   -1    0    0  501  502  0.00000000000E+00  0.00000000000E+00  0.21404614968E+01  0.21404614968E+01  0.00000000000E+00 0. -1.
         13   -1    0    0    0    0 -0.00000000000E+00 -0.00000000000E+00 -0.10000000000E+04  0.10000000000E+04  0.00000000000E+00 0.  1.
    9000005    2    1    2  501    0 -0.82384905260E+01  0.43534030853E+02 -0.35646096548E+03  0.35921339406E+03  0.25996137683E+01 0.  0.
         13    1    3    3    0    0 -0.74203723780E+01  0.37703745352E+02 -0.30191590061E+03  0.30435151615E+03  0.00000000000E+00 0.  1.
          1    1    3    3  501    0 -0.81811814794E+00  0.58302855014E+01 -0.54545064868E+02  0.54861877910E+02  0.00000000000E+00 0.  1.
         -1    1    1    2    0  502  0.82384905260E+01 -0.43534030853E+02 -0.64139857303E+03  0.64292706744E+03  0.00000000000E+00 0. -1.
<mgrwt>
<rscale>  1 0.30000000E+03</rscale>
<asrwt>0</asrwt>
<pdfrwt beam="1">  1       21 0.77835128E-02 0.30000000E+03</pdfrwt>
<pdfrwt beam="2">0</pdfrwt>
<totfact> 0.13403982E+04</totfact>
</mgrwt>
</event>
<event>
 6    1  0.1273846E-001  0.3000000E+03  0.7818608E-02  0.1093470E+00
         21   -1    0    0  501  502  0.00000000000E+00  0.00000000000E+00  0.15103218567E+01  0.15103218567E+01  0.00000000000E+00 0. -1.
         13   -1    0    0    0    0 -0.00000000000E+00 -0.00000000000E+00 -0.10000000000E+04  0.10000000000E+04  0.00000000000E+00 0.  1.
    9000005    2    1    2  501    0 -0.30510596300E+02 -0.18632433092E+02 -0.30620217910E+03  0.30830036421E+03  0.33579810364E+01 0.  0.
         13    1    3    3    0    0 -0.20659832292E+02 -0.14414625021E+02 -0.21440597335E+03  0.21588082706E+03  0.00000000000E+00 0.  1.
          3    1    3    3  501    0 -0.98507640075E+01 -0.42178080715E+01 -0.91796205749E+02  0.92419537146E+02  0.00000000000E+00 0.  1.
         -3    1    1    2    0  502  0.30510596300E+02  0.18632433092E+02 -0.69228749905E+03  0.69320995765E+03  0.00000000000E+00 0. -1.
<mgrwt>
<rscale>  1 0.30000000E+03</rscale>
<asrwt>0</asrwt>
<pdfrwt beam="1">  1       21 0.54920911E-02 0.30000000E+03</pdfrwt>
<pdfrwt beam="2">0</pdfrwt>
<totfact> 0.24534610E+04</totfact>
</mgrwt>
</event>
<event>
 6    1  0.1273846E-001  0.3000000E+03  0.7818608E-02  0.1093470E+00
         21   -1    0    0  501  502  0.00000000000E+00  0.00000000000E+00  0.13484263390E+02  0.13484263390E+02  0.00000000000E+00 0. -1.
         13   -1    0    0    0    0 -0.00000000000E+00 -0.00000000000E+00 -0.10000000000E+04  0.10000000000E+04  0.00000000000E+00 0.  1.
    9000005    2    1    2  501    0  0.20669391394E+02  0.48270954169E+02 -0.94521308226E+03  0.94667694333E+03  0.34864603365E+01 0.  0.
         13    1    3    3    0    0  0.31316495805E+01  0.71827503112E+01 -0.12012567972E+03  0.12038097050E+03  0.00000000000E+00 0.  1.
          3    1    3    3  501    0  0.17537741813E+02  0.41088203858E+02 -0.82508740254E+03  0.82629597283E+03  0.00000000000E+00 0.  1.
         -1    1    1    2    0  502 -0.20669391394E+02 -0.48270954169E+02 -0.41302654354E+02  0.66807320061E+02  0.00000000000E+00 0. -1.
<mgrwt>
<rscale>  1 0.30000000E+03</rscale>
<asrwt>0</asrwt>
<pdfrwt beam="1">  1       21 0.49033788E-01 0.30000000E+03</pdfrwt>
<pdfrwt beam="2">0</pdfrwt>
<totfact> 0.39192760E+02</totfact>
</mgrwt>
</event>
<event>
 6    1  0.1273846E-001  0.3000000E+03  0.7818608E-02  0.1093470E+00
         21   -1    0    0  501  502  0.00000000000E+00  0.00000000000E+00  0.92641998470E+00  0.92641998470E+00  0.00000000000E+00 0. -1.
         13   -1    0    0    0    0 -0.00000000000E+00 -0.00000000000E+00 -0.10000000000E+04  0.10000000000E+04  0.00000000000E+00 0.  1.
    9000005    2    1    2  501    0  0.20111516272E+02  0.22627921223E+02 -0.53624271488E+03  0.53710651352E+03  0.32652265356E+01 0.  0.
         13    1    3    3    0    0  0.79693928607E+01  0.10196965772E+02 -0.20466190681E+03  0.20507068399E+03  0.00000000000E+00 0.  1.
          3    1    3    3  501    0  0.12142123411E+02  0.12430955451E+02 -0.33158080806E+03  0.33203582953E+03  0.00000000000E+00 0.  1.
         -3    1    1    2    0  502 -0.20111516272E+02 -0.22627921223E+02 -0.46283086514E+03  0.46381990646E+03  0.00000000000E+00 0. -1.
<mgrwt>
<rscale>  1 0.30000000E+03</rscale>
<asrwt>0</asrwt>
<pdfrwt beam="1">  1       21 0.33688070E-02 0.30000000E+03</pdfrwt>
<pdfrwt beam="2">0</pdfrwt>
<totfact> 0.56088026E+04</totfact>
</mgrwt>
</event>
<event>
 6    1  0.1273846E-001  0.3000000E+03  0.7818608E-02  0.1093470E+00
         21   -1    0    0  501  502  0.00000000000E+00  0.00000000000E+00  0.10047014491E+01  0.10047014491E+01  0.00000000000E+00 0. -1.
         13   -1    0    0    0    0 -0.00000000000E+00 -0.00000000000E+00 -0.10000000000E+04  0.10000000000E+04  0.00000000000E+00 0.  1.
    9000005    2    1    2  501    0  0.13957440632E+02  0.27731268149E+02 -0.56485357063E+03  0.56575434441E+03  0.73884085576E+01 0.  0.
         13    1    3    3    0    0  0.80759120673E+01  0.87380717126E+01 -0.23686591434E+03  0.23716457499E+03  0.00000000000E+00 0.  1.
          1    1    3    3  501    0  0.58815285643E+01  0.18993196437E+02 -0.32798765629E+03  0.32858976942E+03  0.00000000000E+00 0.  1.
         -3    1    1    2    0  502 -0.13957440632E+02 -0.27731268149E+02 -0.43414172792E+03  0.43525035704E+03  0.00000000000E+00 0. -1.
<mgrwt>
<rscale>  1 0.30000000E+03</rscale>
<asrwt>0</asrwt>
<pdfrwt beam="1">  1       21 0.36534675E-02 0.30000000E+03</pdfrwt>
<pdfrwt beam="2">0</pdfrwt>
<totfact> 0.48964385E+04</totfact>
</mgrwt>
</event>
<event>
 6    1  0.1273846E-001  0.3000000E+03  0.7818608E-02  0.1093470E+00
         21   -1    0    0  501  502  0.00000000000E+00  0.00000000000E+00  0.97207329856E+00  0.97207329856E+00  0.00000000000E+00 0. -1.
         13   -1    0    0    0    0 -0.00000000000E+00 -0.00000000000E+00 -0.10000000000E+04  0.10000000000E+04  0.00000000000E+00 0.  1.
    9000005    2    1    2  501    0  0.29530332283E+02 -0.67744820904E+01 -0.61245022681E+03  0.61320893401E+03  0.34615467692E+01 0.  0.
         13    1    3    3    0    0  0.24614635067E+02 -0.43069016315E+01 -0.50643517195E+03  0.50705129232E+03  0.00000000000E+00 0.  1.
          3    1    3    3  501    0  0.49156972155E+01 -0.24675804589E+01 -0.10601505486E+03  0.10615764169E+03  0.00000000000E+00 0.  1.
         -3    1    1    2    0  502 -0.29530332283E+02  0.67744820904E+01 -0.38657769989E+03  0.38776313928E+03  0.00000000000E+00 0. -1.
<mgrwt>
<rscale>  1 0.30000000E+03</rscale>
<asrwt>0</asrwt>
<pdfrwt beam="1">  1       21 0.35348194E-02 0.30000000E+03</pdfrwt>
<pdfrwt beam="2">0</pdfrwt>
<totfact> 0.51751508E+04</totfact>
</mgrwt>
</event>
<event>
 6    1  0.1273846E-001  0.3000000E+03  0.7818608E-02  0.1093470E+00
         21   -1    0    0  501  502  0.00000000000E+00  0.00000000000E+00  0.63466890752E+01  0.63466890752E+01  0.00000000000E+00 0. -1.
         13   -1    0    0    0    0 -0.00000000000E+00 -0.00000000000E+00 -0.10000000000E+04  0.10000000000E+04  0.00000000000E+00 0.  1.
    9000005    2    1    2  501    0  0.82899777499E+01 -0.79189650429E+02 -0.49031040513E+03  0.49674507479E+03  0.34134271911E+01 0.  0.
         13    1    3    3    0    0  0.67463801635E+01 -0.53183328186E+02 -0.33668801750E+03  0.34092931990E+03  0.00000000000E+00 0.  1.
          3    1    3    3  501    0  0.15435975864E+01 -0.26006322243E+02 -0.15362238763E+03  0.15581575489E+03  0.00000000000E+00 0.  1.
         -1    1    1    2    0  502 -0.82899777499E+01  0.79189650429E+02 -0.50334290579E+03  0.50960161428E+03  0.00000000000E+00 0. -1.
<mgrwt>
<rscale>  1 0.30000000E+03</rscale>
<asrwt>0</asrwt>
<pdfrwt beam="1">  1       21 0.23078918E-01 0.30000000E+03</pdfrwt>
<pdfrwt beam="2">0</pdfrwt>
<totfact> 0.18221584E+03</totfact>
</mgrwt>
</event>
<event>
 6    1  0.1273846E-001  0.3000000E+03  0.7818608E-02  0.1093470E+00
         21   -1    0    0  501  502  0.00000000000E+00  0.00000000000E+00  0.23414737962E+01  0.23414737962E+01  0.00000000000E+00 0. -1.
         13   -1    0    0    0    0 -0.00000000000E+00 -0.00000000000E+00 -0.10000000000E+04  0.10000000000E+04  0.00000000000E+00 0.  1.
    9000005    2    1    2  501    0 -0.23361393780E+02 -0.39256966115E+02 -0.66301486671E+03  0.66459416744E+03  0.31352537301E+01 0.  0.
         13    1    3    3    0    0 -0.27280535408E+01 -0.46956366617E+01 -0.65246085167E+02  0.65471695483E+02  0.00000000000E+00 0.  1.
          3    1    3    3  501    0 -0.20633340239E+02 -0.34561329453E+02 -0.59776878154E+03  0.59912247196E+03  0.00000000000E+00 0.  1.
         -3    1    1    2    0  502  0.23361393780E+02  0.39256966115E+02 -0.33464365949E+03  0.33774730635E+03  0.00000000000E+00 0. -1.
<mgrwt>
<rscale>  1 0.30000000E+03</rscale>
<asrwt>0</asrwt>
<pdfrwt beam="1">  1       21 0.85144681E-02 0.30000000E+03</pdfrwt>
<pdfrwt beam="2">0</pdfrwt>
<totfact> 0.11446879E+04</totfact>
</mgrwt>
</event>
<event>
 6    1  0.1273846E-001  0.3000000E+03  0.7818608E-02  0.1093470E+00
         21   -1    0    0  501  502  0.00000000000E+00  0.00000000000E+00  0.25412425429E+01  0.25412425429E+01  0.00000000000E+00 0. -1.
         13   -1    0    0    0    0 -0.00000000000E+00 -0.00000000000E+00 -0.10000000000E+04  0.10000000000E+04  0.00000000000E+00 0.  1.
    9000005    2    1    2  501    0  0.33440959204E+02 -0.50219235105E+01 -0.87024740696E+03  0.87091204683E+03  0.37049328700E+01 0.  0.
         13    1    3    3    0    0  0.32684138600E+02 -0.51992099354E+01 -0.85930147782E+03  0.85993855274E+03  0.00000000000E+00 0.  1.
          1    1    3    3  501    0  0.75682060492E+00  0.17728642489E+00 -0.10945929142E+02  0.10973494096E+02  0.00000000000E+00 0.  1.
         -3    1    1    2    0  502 -0.33440959204E+02  0.50219235105E+01 -0.12721135049E+03  0.13162919571E+03  0.00000000000E+00 0. -1.
<mgrwt>
<rscale>  1 0.30000000E+03</rscale>
<asrwt>0</asrwt>
<pdfrwt beam="1">  1       21 0.92409015E-02 0.30000000E+03</pdfrwt>
<pdfrwt beam="2">0</pdfrwt>
<totfact> 0.99030254E+03</totfact>
</mgrwt>
</event>
<event>
 6    1  0.1273846E-001  0.3000000E+03  0.7818608E-02  0.1093470E+00
         21   -1    0    0  501  502  0.00000000000E+00  0.00000000000E+00  0.11340529770E+01  0.11340529770E+01  0.00000000000E+00 0. -1.
         13   -1    0    0    0    0 -0.00000000000E+00 -0.00000000000E+00 -0.10000000000E+04  0.10000000000E+04  0.00000000000E+00 0.  1.
    9000005    2    1    2  501    0  0.16391565080E+01 -0.30553943247E+02 -0.70663393365E+03  0.70730454472E+03  0.34601322383E+01 0.  0.
         13    1    3    3    0    0  0.19198122767E+01 -0.13756200461E+02 -0.34884658536E+03  0.34912298528E+03  0.00000000000E+00 0.  1.
          3    1    3    3  501    0 -0.28065576875E+00 -0.16797742786E+02 -0.35778734829E+03  0.35818155945E+03  0.00000000000E+00 0.  1.
         -3    1    1    2    0  502 -0.16391565080E+01  0.30553943247E+02 -0.29223201337E+03  0.29382950825E+03  0.00000000000E+00 0. -1.
<mgrwt>
<rscale>  1 0.30000000E+03</rscale>
<asrwt>0</asrwt>
<pdfrwt beam="1">  1       21 0.41238377E-02 0.30000000E+03</pdfrwt>
<pdfrwt beam="2">0</pdfrwt>
<totfact> 0.39941209E+04</totfact>
</mgrwt>
</event>
<event>
 6    1  0.1273846E-001  0.3000000E+03  0.7818608E-02  0.1093470E+00
         21   -1    0    0  501  502  0.00000000000E+00  0.00000000000E+00  0.19477836156E+01  0.19477836156E+01  0.00000000000E+00 0. -1.
         13   -1    0    0    0    0 -0.00000000000E+00 -0.00000000000E+00 -0.10000000000E+04  0.10000000000E+04  0.00000000000E+00 0.  1.
    9000005    2    1    2  501    0  0.40989163653E+02 -0.14133568452E+02 -0.40993048639E+03  0.41223002182E+03  0.32738230996E+01 0.  0.
         13    1    3    3    0    0  0.36932195315E+02 -0.12038681504E+02 -0.37349432482E+03  0.37550889147E+03  0.00000000000E+00 0.  1.
          3    1    3    3  501    0  0.40569683374E+01 -0.20948869476E+01 -0.36436161573E+02  0.36721130342E+02  0.00000000000E+00 0.  1.
         -1    1    1    2    0  502 -0.40989163653E+02  0.14133568452E+02 -0.58812172999E+03  0.58971776180E+03  0.00000000000E+00 0. -1.
<mgrwt>
<rscale>  1 0.30000000E+03</rscale>
<asrwt>0</asrwt>
<pdfrwt beam="1">  1       21 0.70828644E-02 0.30000000E+03</pdfrwt>
<pdfrwt beam="2">0</pdfrwt>
<totfact> 0.15808030E+04</totfact>
</mgrwt>
</event>
<event>
 6    1  0.1273846E-001  0.3000000E+03  0.7818608E-02  0.1093470E+00
         21   -1    0    0  501  502  0.00000000000E+00  0.00000000000E+00  0.12197888496E+01  0.12197888496E+01  0.00000000000E+00 0. -1.
         13   -1    0    0    0    0 -0.00000000000E+00 -0.00000000000E+00 -0.10000000000E+04  0.10000000000E+04  0.00000000000E+00 0.  1.
    9000005    2    1    2  501    0  0.27968158033E+02  0.17888103125E+02 -0.65183068180E+03  0.65268546053E+03  0.35875563966E+01 0.  0.
         13    1    3    3    0    0  0.61066380616E+01  0.22353230923E+01 -0.12391238909E+03  0.12408290724E+03  0.00000000000E+00 0.  1.
          1    1    3    3  501    0  0.21861519972E+02  0.15652780033E+02 -0.52791829271E+03  0.52860255330E+03  0.00000000000E+00 0.  1.
         -3    1    1    2    0  502 -0.27968158033E+02 -0.17888103125E+02 -0.34694952935E+03  0.34853432832E+03  0.00000000000E+00 0. -1.
<mgrwt>
<rscale>  1 0.30000000E+03</rscale>
<asrwt>0</asrwt>
<pdfrwt beam="1">  1       21 0.44356052E-02 0.30000000E+03</pdfrwt>
<pdfrwt beam="2">0</pdfrwt>
<totfact> 0.35310868E+04</totfact>
</mgrwt>
</event>
<event>
 6    1  0.1273846E-001  0.3000000E+03  0.7818608E-02  0.1093470E+00
         21   -1    0    0  501  502  0.00000000000E+00  0.00000000000E+00  0.10229522594E+02  0.10229522594E+02  0.00000000000E+00 0. -1.
         13   -1    0    0    0    0 -0.00000000000E+00 -0.00000000000E+00 -0.10000000000E+04  0.10000000000E+04  0.00000000000E+00 0.  1.
    9000005    2    1    2  501    0 -0.10033444602E+03 -0.27091754880E+01 -0.55623089053E+03  0.56522287762E+03  0.31236369287E+01 0.  0.
         13    1    3    3    0    0 -0.78597120114E+02 -0.86531276617E+00 -0.43697406235E+03  0.44398714759E+03  0.00000000000E+00 0.  1.
          1    1    3    3  501    0 -0.21737325903E+02 -0.18438627218E+01 -0.11925682818E+03  0.12123573003E+03  0.00000000000E+00 0.  1.
         -1    1    1    2    0  502  0.10033444602E+03  0.27091754880E+01 -0.43353958687E+03  0.44500664498E+03  0.00000000000E+00 0. -1.
<mgrwt>
<rscale>  1 0.30000000E+03</rscale>
<asrwt>0</asrwt>
<pdfrwt beam="1">  1       21 0.37198342E-01 0.30000000E+03</pdfrwt>
<pdfrwt beam="2">0</pdfrwt>
<totfact> 0.70221913E+02</totfact>
</mgrwt>
</event>
<event>
 6    1  0.1273846E-001  0.3000000E+03  0.7818608E-02  0.1093470E+00
         21   -1    0    0  501  502  0.00000000000E+00  0.00000000000E+00  0.14450817713E+01  0.14450817713E+01  0.00000000000E+00 0. -1.
         13   -1    0    0    0    0 -0.00000000000E+00 -0.00000000000E+00 -0.10000000000E+04  0.10000000000E+04  0.00000000000E+00 0.  1.
    9000005    2    1    2  501    0  0.30786411111E+02 -0.13629562888E+02 -0.73081947062E+03  0.73160098234E+03  0.30546070955E+01 0.  0.
         13    1    3    3    0    0  0.47292314354E+01 -0.21097687536E+01 -0.90535846728E+02  0.90683825994E+02  0.00000000000E+00 0.  1.
          1    1    3    3  501    0  0.26057179676E+02 -0.11519794135E+02 -0.64028362390E+03  0.64091715635E+03  0.00000000000E+00 0.  1.
         -1    1    1    2    0  502 -0.30786411111E+02  0.13629562888E+02 -0.26773544760E+03  0.26984409943E+03  0.00000000000E+00 0. -1.
<mgrwt>
<rscale>  1 0.30000000E+03</rscale>
<asrwt>0</asrwt>
<pdfrwt beam="1">  1       21 0.52548539E-02 0.30000000E+03</pdfrwt>
<pdfrwt beam="2">0</pdfrwt>
<totfact> 0.26461100E+04</totfact>
</mgrwt>
</event>
<event>
 6    1  0.1273846E-001  0.3000000E+03  0.7818608E-02  0.1093470E+00
         21   -1    0    0  501  502  0.00000000000E+00  0.00000000000E+00  0.10467644506E+01  0.10467644506E+01  0.00000000000E+00 0. -1.
         13   -1    0    0    0    0 -0.00000000000E+00 -0.00000000000E+00 -0.10000000000E+04  0.10000000000E+04  0.00000000000E+00 0.  1.
    9000005    2    1    2  501    0  0.26035395427E+02  0.18961113954E+02 -0.53045733392E+03  0.53144504438E+03  0.33891622038E+01 0.  0.
         13    1    3    3    0    0  0.12276010352E+02  0.86788715884E+01 -0.27530366953E+03  0.27571386200E+03  0.00000000000E+00 0.  1.
          3    1    3    3  501    0  0.13759385075E+02  0.10282242365E+02 -0.25515366440E+03  0.25573118238E+03  0.00000000000E+00 0.  1.
         -1    1    1    2    0  502 -0.26035395427E+02 -0.18961113954E+02 -0.46849590163E+03  0.46960172007E+03  0.00000000000E+00 0. -1.
<mgrwt>
<rscale>  1 0.30000000E+03</rscale>
<asrwt>0</asrwt>
<pdfrwt beam="1">  1       21 0.38064242E-02 0.30000000E+03</pdfrwt>
<pdfrwt beam="2">0</pdfrwt>
<totfact> 0.45706177E+04</totfact>
</mgrwt>
</event>
<event>
 6    1  0.1273846E-001  0.3000000E+03  0.7818608E-02  0.1093470E+00
         21   -1    0    0  501  502  0.00000000000E+00  0.00000000000E+00  0.15542823222E+01  0.15542823222E+01  0.00000000000E+00 0. -1.
         13   -1    0    0    0    0 -0.00000000000E+00 -0.00000000000E+00 -0.10000000000E+04  0.10000000000E+04  0.00000000000E+00 0.  1.
    9000005    2    1    2  501    0  0.58247626982E+01  0.30742122631E+02 -0.80338865531E+03  0.80400362162E+03  0.30799566440E+01 0.  0.
         13    1    3    3    0    0  0.13744725904E+01  0.29263134921E+01 -0.71490461512E+02  0.71563528230E+02  0.00000000000E+00 0.  1.
          3    1    3    3  501    0  0.44502901077E+01  0.27815809139E+02 -0.73189819380E+03  0.73244009339E+03  0.00000000000E+00 0.  1.
         -3    1    1    2    0  502 -0.58247626982E+01 -0.30742122631E+02 -0.19505706237E+03  0.19755066070E+03  0.00000000000E+00 0. -1.
<mgrwt>
<rscale>  1 0.30000000E+03</rscale>
<asrwt>0</asrwt>
<pdfrwt beam="1">  1       21 0.56519476E-02 0.30000000E+03</pdfrwt>
<pdfrwt beam="2">0</pdfrwt>
<totfact> 0.23355679E+04</totfact>
</mgrwt>
</event>
<event>
 6    1  0.1273846E-001  0.3000000E+03  0.7818608E-02  0.1093470E+00
         21   -1    0    0  501  502  0.00000000000E+00  0.00000000000E+00  0.47276858390E+01  0.47276858390E+01  0.00000000000E+00 0. -1.
         13   -1    0    0    0    0 -0.00000000000E+00 -0.00000000000E+00 -0.10000000000E+04  0.10000000000E+04  0.00000000000E+00 0.  1.
    9000005    2    1    2  501    0 -0.65710987279E+02  0.17102307829E+02 -0.41942221562E+03  0.42488826085E+03  0.21485971971E+01 0.  0.
         13    1    3    3    0    0 -0.45815051031E+02  0.12305798382E+02 -0.28722281414E+03  0.29111406105E+03  0.00000000000E+00 0.  1.
          1    1    3    3  501    0 -0.19895936248E+02  0.47965094473E+01 -0.13219940148E+03  0.13377419980E+03  0.00000000000E+00 0.  1.
         -1    1    1    2    0  502  0.65710987279E+02 -0.17102307829E+02 -0.57585009854E+03  0.57983942499E+03  0.00000000000E+00 0. -1.
<mgrwt>
<rscale>  1 0.30000000E+03</rscale>
<asrwt>0</asrwt>
<pdfrwt beam="1">  1       21 0.17191621E-01 0.30000000E+03</pdfrwt>
<pdfrwt beam="2">0</pdfrwt>
<totfact> 0.31937303E+03</totfact>
</mgrwt>
</event>
<event>
 6    1  0.1273846E-001  0.3000000E+03  0.7818608E-02  0.1093470E+00
         21   -1    0    0  501  502  0.00000000000E+00  0.00000000000E+00  0.23839171125E+01  0.23839171125E+01  0.00000000000E+00 0. -1.
         13   -1    0    0    0    0 -0.00000000000E+00 -0.00000000000E+00 -0.10000000000E+04  0.10000000000E+04  0.00000000000E+00 0.  1.
    9000005    2    1    2  501    0  0.96199580770E+01 -0.31473825085E+02 -0.86768085693E+03  0.86834545919E+03  0.84036745300E+01 0.  0.
         13    1    3    3    0    0  0.33138998853E+01 -0.17427766705E+02 -0.55822823449E+03  0.55851004536E+03  0.00000000000E+00 0.  1.
          1    1    3    3  501    0  0.63060581917E+01 -0.14046058380E+02 -0.30945262244E+03  0.30983541383E+03  0.00000000000E+00 0.  1.
         -3    1    1    2    0  502 -0.96199580770E+01  0.31473825085E+02 -0.12993522595E+03  0.13403845792E+03  0.00000000000E+00 0. -1.
<mgrwt>
<rscale>  1 0.30000000E+03</rscale>
<asrwt>0</asrwt>
<pdfrwt beam="1">  1       21 0.86688078E-02 0.30000000E+03</pdfrwt>
<pdfrwt beam="2">0</pdfrwt>
<totfact> 0.11089667E+04</totfact>
</mgrwt>
</event>
<event>
 6    1  0.1273846E-001  0.3000000E+03  0.7818608E-02  0.1093470E+00
         21   -1    0    0  501  502  0.00000000000E+00  0.00000000000E+00  0.17924602699E+01  0.17924602699E+01  0.00000000000E+00 0. -1.
         13   -1    0    0    0    0 -0.00000000000E+00 -0.00000000000E+00 -0.10000000000E+04  0.10000000000E+04  0.00000000000E+00 0.  1.
    9000005    2    1    2  501    0  0.26708240278E+02  0.30109706138E+02 -0.65323010880E+03  0.65447509480E+03  0.28548510237E+01 0.  0.
         13    1    3    3    0    0  0.96790365296E+01  0.11903282376E+02 -0.26895421615E+03  0.26939142946E+03  0.00000000000E+00 0.  1.
          3    1    3    3  501    0  0.17029203748E+02  0.18206423762E+02 -0.38427589264E+03  0.38508366534E+03  0.00000000000E+00 0.  1.
         -1    1    1    2    0  502 -0.26708240278E+02 -0.30109706138E+02 -0.34497743093E+03  0.34731736547E+03  0.00000000000E+00 0. -1.
<mgrwt>
<rscale>  1 0.30000000E+03</rscale>
<asrwt>0</asrwt>
<pdfrwt beam="1">  1       21 0.65180511E-02 0.30000000E+03</pdfrwt>
<pdfrwt beam="2">0</pdfrwt>
<totfact> 0.18262140E+04</totfact>
</mgrwt>
</event>
<event>
 6    1  0.1273846E-001  0.3000000E+03  0.7818608E-02  0.1093470E+00
         21   -1    0    0  501  502  0.00000000000E+00  0.00000000000E+00  0.81412091612E+01  0.81412091612E+01  0.00000000000E+00 0. -1.
         13   -1    0    0    0    0 -0.00000000000E+00 -0.00000000000E+00 -0.10000000000E+04  0.10000000000E+04  0.00000000000E+00 0.  1.
    9000005    2    1    2  501    0 -0.69594296846E+02 -0.51228170420E+02 -0.64051115713E+03  0.64632239911E+03  0.32263877481E+01 0.  0.
         13    1    3    3    0    0 -0.19677725186E+02 -0.15205099365E+02 -0.19447831277E+03  0.19606178122E+03  0.00000000000E+00 0.  1.
          3    1    3    3  501    0 -0.49916571661E+02 -0.36023071055E+02 -0.44603284436E+03  0.45026061789E+03  0.00000000000E+00 0.  1.
         -3    1    1    2    0  502  0.69594296846E+02  0.51228170420E+02 -0.35134763371E+03  0.36181881005E+03  0.00000000000E+00 0. -1.
<mgrwt>
<rscale>  1 0.30000000E+03</rscale>
<asrwt>0</asrwt>
<pdfrwt beam="1">  1       21 0.29604459E-01 0.30000000E+03</pdfrwt>
<pdfrwt beam="2">0</pdfrwt>
<totfact> 0.11165063E+03</totfact>
</mgrwt>
</event>
<event>
 6    1  0.1273846E-001  0.3000000E+03  0.7818608E-02  0.1093470E+00
         21   -1    0    0  501  502  0.00000000000E+00  0.00000000000E+00  0.18165229338E+01  0.18165229338E+01  0.00000000000E+00 0. -1.
         13   -1    0    0    0    0 -0.00000000000E+00 -0.00000000000E+00 -0.10000000000E+04  0.10000000000E+04  0.00000000000E+00 0.  1.
    9000005    2    1    2  501    0  0.13544020070E+01 -0.34895509789E+02 -0.78408918175E+03  0.78489280755E+03  0.64298834178E+01 0.  0.
         13    1    3    3    0    0  0.72466332990E+00 -0.34326684288E+02 -0.77600911276E+03  0.77676829845E+03  0.00000000000E+00 0.  1.
          1    1    3    3  501    0  0.62973867714E+00 -0.56882550050E+00 -0.80800689888E+01  0.81245091000E+01  0.00000000000E+00 0.  1.
         -1    1    1    2    0  502 -0.13544020070E+01  0.34895509789E+02 -0.21409429532E+03  0.21692371539E+03  0.00000000000E+00 0. -1.
<mgrwt>
<rscale>  1 0.30000000E+03</rscale>
<asrwt>0</asrwt>
<pdfrwt beam="1">  1       21 0.66055519E-02 0.30000000E+03</pdfrwt>
<pdfrwt beam="2">0</pdfrwt>
<totfact> 0.17845095E+04</totfact>
</mgrwt>
</event>
<event>
 6    1  0.1273846E-001  0.3000000E+03  0.7818608E-02  0.1093470E+00
         21   -1    0    0  501  502  0.00000000000E+00  0.00000000000E+00  0.16613886049E+01  0.16613886049E+01  0.00000000000E+00 0. -1.
         13   -1    0    0    0    0 -0.00000000000E+00 -0.00000000000E+00 -0.10000000000E+04  0.10000000000E+04  0.00000000000E+00 0.  1.
    9000005    2    1    2  501    0 -0.23229818842E+02 -0.19354220445E+02 -0.83187396767E+03  0.83247306766E+03  0.91049418090E+01 0.  0.
         13    1    3    3    0    0 -0.31784988725E-01 -0.30988712056E+01 -0.60731623378E+02  0.60810641266E+02  0.00000000000E+00 0.  1.
          1    1    3    3  501    0 -0.23198033854E+02 -0.16255349239E+02 -0.77114234429E+03  0.77166242640E+03  0.00000000000E+00 0.  1.
         -1    1    1    2    0  502  0.23229818842E+02  0.19354220445E+02 -0.16646464373E+03  0.16918832094E+03  0.00000000000E+00 0. -1.
<mgrwt>
<rscale>  1 0.30000000E+03</rscale>
<asrwt>0</asrwt>
<pdfrwt beam="1">  1       21 0.60414258E-02 0.30000000E+03</pdfrwt>
<pdfrwt beam="2">0</pdfrwt>
<totfact> 0.20823061E+04</totfact>
</mgrwt>
</event>
<event>
 6    1  0.1273846E-001  0.3000000E+03  0.7818608E-02  0.1093470E+00
         21   -1    0    0  501  502  0.00000000000E+00  0.00000000000E+00  0.26864472036E+01  0.26864472036E+01  0.00000000000E+00 0. -1.
         13   -1    0    0    0    0 -0.00000000000E+00 -0.00000000000E+00 -0.10000000000E+04  0.10000000000E+04  0.00000000000E+00 0.  1.
    9000005    2    1    2  501    0 -0.34077732013E+02 -0.19138054488E+02 -0.82763966818E+03  0.82856929105E+03  0.34774653225E+01 0.  0.
         13    1    3    3    0    0 -0.30726699708E+02 -0.18318470451E+02 -0.76122037061E+03  0.76206046287E+03  0.00000000000E+00 0.  1.
          3    1    3    3  501    0 -0.33510323047E+01 -0.81958403676E+00 -0.66419297573E+02  0.66508828177E+02  0.00000000000E+00 0.  1.
         -3    1    1    2    0  502  0.34077732013E+02  0.19138054488E+02 -0.16967388461E+03  0.17411715616E+03  0.00000000000E+00 0. -1.
<mgrwt>
<rscale>  1 0.30000000E+03</rscale>
<asrwt>0</asrwt>
<pdfrwt beam="1">  1       21 0.97689195E-02 0.30000000E+03</pdfrwt>
<pdfrwt beam="2">0</pdfrwt>
<totfact> 0.89699548E+03</totfact>
</mgrwt>
</event>
<event>
 6    1  0.1273846E-001  0.3000000E+03  0.7818608E-02  0.1093470E+00
         21   -1    0    0  501  502  0.00000000000E+00  0.00000000000E+00  0.11317210924E+01  0.11317210924E+01  0.00000000000E+00 0. -1.
         13   -1    0    0    0    0 -0.00000000000E+00 -0.00000000000E+00 -0.10000000000E+04  0.10000000000E+04  0.00000000000E+00 0.  1.
    9000005    2    1    2  501    0 -0.16493877124E+02  0.25358739139E+02 -0.71551486630E+03  0.71616809171E+03  0.44830856059E+01 0.  0.
         13    1    3    3    0    0 -0.36915183646E+01  0.81130669226E+01 -0.17538234124E+03  0.17560869791E+03  0.00000000000E+00 0.  1.
          1    1    3    3  501    0 -0.12802358760E+02  0.17245672217E+02 -0.54013252506E+03  0.54055939380E+03  0.00000000000E+00 0.  1.
         -1    1    1    2    0  502  0.16493877124E+02 -0.25358739139E+02 -0.28335341261E+03  0.28496362939E+03  0.00000000000E+00 0. -1.
<mgrwt>
<rscale>  1 0.30000000E+03</rscale>
<asrwt>0</asrwt>
<pdfrwt beam="1">  1       21 0.41153581E-02 0.30000000E+03</pdfrwt>
<pdfrwt beam="2">0</pdfrwt>
<totfact> 0.40080119E+04</totfact>
</mgrwt>
</event>
<event>
 6    1  0.1273846E-001  0.3000000E+03  0.7818608E-02  0.1093470E+00
         21   -1    0    0  501  502  0.00000000000E+00  0.00000000000E+00  0.14449201483E+01  0.14449201483E+01  0.00000000000E+00 0. -1.
         13   -1    0    0    0    0 -0.00000000000E+00 -0.00000000000E+00 -0.10000000000E+04  0.10000000000E+04  0.00000000000E+00 0.  1.
    9000005    2    1    2  501    0 -0.37128545493E+02  0.43750086047E+01 -0.58471830720E+03  0.58592290631E+03  0.35332372924E+01 0.  0.
         13    1    3    3    0    0 -0.11719766831E+02  0.11518785363E+01 -0.21048494465E+03  0.21081411642E+03  0.00000000000E+00 0.  1.
          1    1    3    3  501    0 -0.25408778662E+02  0.32231300684E+01 -0.37423336255E+03  0.37510878988E+03  0.00000000000E+00 0.  1.
         -3    1    1    2    0  502  0.37128545493E+02 -0.43750086047E+01 -0.41383677265E+03  0.41552201384E+03  0.00000000000E+00 0. -1.
<mgrwt>
<rscale>  1 0.30000000E+03</rscale>
<asrwt>0</asrwt>
<pdfrwt beam="1">  1       21 0.52542662E-02 0.30000000E+03</pdfrwt>
<pdfrwt beam="2">0</pdfrwt>
<totfact> 0.26466159E+04</totfact>
</mgrwt>
</event>
<event>
 6    1  0.1273846E-001  0.3000000E+03  0.7818608E-02  0.1093470E+00
         21   -1    0    0  501  502  0.00000000000E+00  0.00000000000E+00  0.13792200279E+01  0.13792200279E+01  0.00000000000E+00 0. -1.
         13   -1    0    0    0    0 -0.00000000000E+00 -0.00000000000E+00 -0.10000000000E+04  0.10000000000E+04  0.00000000000E+00 0.  1.
    9000005    2    1    2  501    0 -0.35073568473E+02  0.10320438158E+02 -0.48324513586E+03  0.48470841459E+03  0.89285604431E+01 0.  0.
         13    1    3    3    0    0 -0.17794101753E+02  0.68058763314E+01 -0.30457836098E+03  0.30517360303E+03  0.00000000000E+00 0.  1.
          1    1    3    3  501    0 -0.17279466719E+02  0.35145618267E+01 -0.17866677488E+03  0.17953481156E+03  0.00000000000E+00 0.  1.
         -3    1    1    2    0  502  0.35073568473E+02 -0.10320438158E+02 -0.51537564412E+03  0.51667080544E+03  0.00000000000E+00 0. -1.
<mgrwt>
<rscale>  1 0.30000000E+03</rscale>
<asrwt>0</asrwt>
<pdfrwt beam="1">  1       21 0.50153561E-02 0.30000000E+03</pdfrwt>
<pdfrwt beam="2">0</pdfrwt>
<totfact> 0.28654458E+04</totfact>
</mgrwt>
</event>
<event>
 6    1  0.1273846E-001  0.3000000E+03  0.7818608E-02  0.1093470E+00
         21   -1    0    0  501  502  0.00000000000E+00  0.00000000000E+00  0.45503634820E+01  0.45503634820E+01  0.00000000000E+00 0. -1.
         13   -1    0    0    0    0 -0.00000000000E+00 -0.00000000000E+00 -0.10000000000E+04  0.10000000000E+04  0.00000000000E+00 0.  1.
    9000005    2    1    2  501    0  0.16933614926E+02  0.43995059458E+02 -0.85687120862E+03  0.85817313420E+03  0.32476983161E+01 0.  0.
         13    1    3    3    0    0  0.10319718848E+02  0.22301834068E+02 -0.44728266142E+03  0.44795719394E+03  0.00000000000E+00 0.  1.
          3    1    3    3  501    0  0.66138960774E+01  0.21693225389E+02 -0.40958854720E+03  0.41021594026E+03  0.00000000000E+00 0.  1.
         -1    1    1    2    0  502 -0.16933614926E+02 -0.43995059458E+02 -0.13857842790E+03  0.14637722928E+03  0.00000000000E+00 0. -1.
<mgrwt>
<rscale>  1 0.30000000E+03</rscale>
<asrwt>0</asrwt>
<pdfrwt beam="1">  1       21 0.16546811E-01 0.30000000E+03</pdfrwt>
<pdfrwt beam="2">0</pdfrwt>
<totfact> 0.34306238E+03</totfact>
</mgrwt>
</event>
<event>
 6    1  0.1273846E-001  0.3000000E+03  0.7818608E-02  0.1093470E+00
         21   -1    0    0  501  502  0.00000000000E+00  0.00000000000E+00  0.18051421627E+01  0.18051421627E+01  0.00000000000E+00 0. -1.
         13   -1    0    0    0    0 -0.00000000000E+00 -0.00000000000E+00 -0.10000000000E+04  0.10000000000E+04  0.00000000000E+00 0.  1.
    9000005    2    1    2  501    0  0.28901790500E+02 -0.26557171036E+02 -0.68911050201E+03  0.69023855884E+03  0.39226647110E+01 0.  0.
         13    1    3    3    0    0  0.10868382275E+02 -0.79971579547E+01 -0.25667856752E+03  0.25703300040E+03  0.00000000000E+00 0.  1.
          3    1    3    3  501    0  0.18033408224E+02 -0.18560013082E+02 -0.43243193449E+03  0.43320555844E+03  0.00000000000E+00 0.  1.
         -1    1    1    2    0  502 -0.28901790500E+02  0.26557171036E+02 -0.30908435582E+03  0.31156658332E+03  0.00000000000E+00 0. -1.
<mgrwt>
<rscale>  1 0.30000000E+03</rscale>
<asrwt>0</asrwt>
<pdfrwt beam="1">  1       21 0.65641672E-02 0.30000000E+03</pdfrwt>
<pdfrwt beam="2">0</pdfrwt>
<totfact> 0.18040492E+04</totfact>
</mgrwt>
</event>
<event>
 6    1  0.1273846E-001  0.3000000E+03  0.7818608E-02  0.1093470E+00
         21   -1    0    0  501  502  0.00000000000E+00  0.00000000000E+00  0.46759350527E+01  0.46759350527E+01  0.00000000000E+00 0. -1.
         13   -1    0    0    0    0 -0.00000000000E+00 -0.00000000000E+00 -0.10000000000E+04  0.10000000000E+04  0.00000000000E+00 0.  1.
    9000005    2    1    2  501    0  0.36953668318E+02  0.57030571740E+02 -0.55177359558E+03  0.55594987319E+03  0.28462273347E+01 0.  0.
         13    1    3    3    0    0  0.26233145127E+02  0.41088346828E+02 -0.38546761662E+03  0.38853791786E+03  0.00000000000E+00 0.  1.
          1    1    3    3  501    0  0.10720523191E+02  0.15942224912E+02 -0.16630597896E+03  0.16741195534E+03  0.00000000000E+00 0.  1.
         -3    1    1    2    0  502 -0.36953668318E+02 -0.57030571740E+02 -0.44355046937E+03  0.44872606186E+03  0.00000000000E+00 0. -1.
<mgrwt>
<rscale>  1 0.30000000E+03</rscale>
<asrwt>0</asrwt>
<pdfrwt beam="1">  1       21 0.17003436E-01 0.30000000E+03</pdfrwt>
<pdfrwt beam="2">0</pdfrwt>
<totfact> 0.32602866E+03</totfact>
</mgrwt>
</event>
<event>
 6    1  0.1273846E-001  0.3000000E+03  0.7818608E-02  0.1093470E+00
         21   -1    0    0  501  502  0.00000000000E+00  0.00000000000E+00  0.13319670515E+01  0.13319670515E+01  0.00000000000E+00 0. -1.
         13   -1    0    0    0    0 -0.00000000000E+00 -0.00000000000E+00 -0.10000000000E+04  0.10000000000E+04  0.00000000000E+00 0.  1.
    9000005    2    1    2  501    0  0.32227927982E+02  0.12958680283E+02 -0.64371884606E+03  0.64468719699E+03  0.64079995677E+01 0.  0.
         13    1    3    3    0    0  0.24148229197E+02  0.10137691645E+02 -0.42976882304E+03  0.43056608206E+03  0.00000000000E+00 0.  1.
          1    1    3    3  501    0  0.80796987843E+01  0.28209886380E+01 -0.21395002302E+03  0.21412111493E+03  0.00000000000E+00 0.  1.
         -3    1    1    2    0  502 -0.32227927982E+02 -0.12958680283E+02 -0.35494918689E+03  0.35664477006E+03  0.00000000000E+00 0. -1.
<mgrwt>
<rscale>  1 0.30000000E+03</rscale>
<asrwt>0</asrwt>
<pdfrwt beam="1">  1       21 0.48435268E-02 0.30000000E+03</pdfrwt>
<pdfrwt beam="2">0</pdfrwt>
<totfact> 0.30407762E+04</totfact>
</mgrwt>
</event>
<event>
 6    1  0.1273846E-001  0.3000000E+03  0.7818608E-02  0.1093470E+00
         21   -1    0    0  501  502  0.00000000000E+00  0.00000000000E+00  0.20256503225E+01  0.20256503225E+01  0.00000000000E+00 0. -1.
         13   -1    0    0    0    0 -0.00000000000E+00 -0.00000000000E+00 -0.10000000000E+04  0.10000000000E+04  0.00000000000E+00 0.  1.
    9000005    2    1    2  501    0 -0.32017593635E+02 -0.11652385305E+02 -0.82591121433E+03  0.82662146870E+03  0.35796888283E+01 0.  0.
         13    1    3    3    0    0 -0.96120787998E+01 -0.34421430765E+01 -0.28887874527E+03  0.28905911139E+03  0.00000000000E+00 0.  1.
          1    1    3    3  501    0 -0.22405514835E+02 -0.82102422287E+01 -0.53703246906E+03  0.53756235731E+03  0.00000000000E+00 0.  1.
         -3    1    1    2    0  502  0.32017593635E+02  0.11652385305E+02 -0.17206313535E+03  0.17540418162E+03  0.00000000000E+00 0. -1.
<mgrwt>
<rscale>  1 0.30000000E+03</rscale>
<asrwt>0</asrwt>
<pdfrwt beam="1">  1       21 0.73660167E-02 0.30000000E+03</pdfrwt>
<pdfrwt beam="2">0</pdfrwt>
<totfact> 0.14762838E+04</totfact>
</mgrwt>
</event>
<event>
 6    1  0.1273846E-001  0.3000000E+03  0.7818608E-02  0.1093470E+00
         21   -1    0    0  501  502  0.00000000000E+00  0.00000000000E+00  0.53800251030E+01  0.53800251030E+01  0.00000000000E+00 0. -1.
         13   -1    0    0    0    0 -0.00000000000E+00 -0.00000000000E+00 -0.10000000000E+04  0.10000000000E+04  0.00000000000E+00 0.  1.
    9000005    2    1    2  501    0  0.21948734529E+02 -0.69940199710E+02 -0.50791243808E+03  0.51318331150E+03  0.29475358136E+01 0.  0.
         13    1    3    3    0    0  0.16332551153E+02 -0.55993179996E+02 -0.40470657028E+03  0.40888799989E+03  0.00000000000E+00 0.  1.
          1    1    3    3  501    0  0.56161833761E+01 -0.13947019714E+02 -0.10320586780E+03  0.10429531161E+03  0.00000000000E+00 0.  1.
         -3    1    1    2    0  502 -0.21948734529E+02  0.69940199710E+02 -0.48670753682E+03  0.49219671360E+03  0.00000000000E+00 0. -1.
<mgrwt>
<rscale>  1 0.30000000E+03</rscale>
<asrwt>0</asrwt>
<pdfrwt beam="1">  1       21 0.19563769E-01 0.30000000E+03</pdfrwt>
<pdfrwt beam="2">0</pdfrwt>
<totfact> 0.25022121E+03</totfact>
</mgrwt>
</event>
<event>
 6    1  0.1273846E-001  0.3000000E+03  0.7818608E-02  0.1093470E+00
         21   -1    0    0  501  502  0.00000000000E+00  0.00000000000E+00  0.10254946092E+01  0.10254946092E+01  0.00000000000E+00 0. -1.
         13   -1    0    0    0    0 -0.00000000000E+00 -0.00000000000E+00 -0.10000000000E+04  0.10000000000E+04  0.00000000000E+00 0.  1.
    9000005    2    1    2  501    0  0.74204297615E+01  0.29248144483E+02 -0.66433663925E+03  0.66502993186E+03  0.33351585928E+01 0.  0.
         13    1    3    3    0    0  0.22332477438E+01  0.12706639617E+02 -0.31322933199E+03  0.31349491305E+03  0.00000000000E+00 0.  1.
          3    1    3    3  501    0  0.51871820177E+01  0.16541504866E+02 -0.35110730726E+03  0.35153501881E+03  0.00000000000E+00 0.  1.
         -3    1    1    2    0  502 -0.74204297615E+01 -0.29248144483E+02 -0.33463786614E+03  0.33599556275E+03  0.00000000000E+00 0. -1.
<mgrwt>
<rscale>  1 0.30000000E+03</rscale>
<asrwt>0</asrwt>
<pdfrwt beam="1">  1       21 0.37290792E-02 0.30000000E+03</pdfrwt>
<pdfrwt beam="2">0</pdfrwt>
<totfact> 0.47309608E+04</totfact>
</mgrwt>
</event>
<event>
 6    1  0.1273846E-001  0.3000000E+03  0.7818608E-02  0.1093470E+00
         21   -1    0    0  501  502  0.00000000000E+00  0.00000000000E+00  0.10441807041E+01  0.10441807041E+01  0.00000000000E+00 0. -1.
         13   -1    0    0    0    0 -0.00000000000E+00 -0.00000000000E+00 -0.10000000000E+04  0.10000000000E+04  0.00000000000E+00 0.  1.
    9000005    2    1    2  501    0  0.16598047614E+02  0.26376321135E+02 -0.62103292082E+03  0.62183853374E+03  0.54834107682E+01 0.  0.
         13    1    3    3    0    0  0.78949237580E+01  0.11849020761E+02 -0.33763361577E+03  0.33793370298E+03  0.00000000000E+00 0.  1.
          3    1    3    3  501    0  0.87031238556E+01  0.14527300373E+02 -0.28339930505E+03  0.28390483075E+03  0.00000000000E+00 0.  1.
         -1    1    1    2    0  502 -0.16598047614E+02 -0.26376321135E+02 -0.37792289847E+03  0.37920564697E+03  0.00000000000E+00 0. -1.
<mgrwt>
<rscale>  1 0.30000000E+03</rscale>
<asrwt>0</asrwt>
<pdfrwt beam="1">  1       21 0.37970287E-02 0.30000000E+03</pdfrwt>
<pdfrwt beam="2">0</pdfrwt>
<totfact> 0.45896359E+04</totfact>
</mgrwt>
</event>
<event>
 6    1  0.1273846E-001  0.3000000E+03  0.7818608E-02  0.1093470E+00
         21   -1    0    0  501  502  0.00000000000E+00  0.00000000000E+00  0.20371506561E+01  0.20371506561E+01  0.00000000000E+00 0. -1.
         13   -1    0    0    0    0 -0.00000000000E+00 -0.00000000000E+00 -0.10000000000E+04  0.10000000000E+04  0.00000000000E+00 0.  1.
    9000005    2    1    2  501    0  0.35068153886E+02  0.23518940969E+02 -0.67507167495E+03  0.67639681761E+03  0.28235721114E+01 0.  0.
         13    1    3    3    0    0  0.22929336447E+02  0.16781721731E+02 -0.44329643247E+03  0.44420615450E+03  0.00000000000E+00 0.  1.
          1    1    3    3  501    0  0.12138817439E+02  0.67372192384E+01 -0.23177524248E+03  0.23219066311E+03  0.00000000000E+00 0.  1.
         -1    1    1    2    0  502 -0.35068153886E+02 -0.23518940969E+02 -0.32289117440E+03  0.32564033304E+03  0.00000000000E+00 0. -1.
<mgrwt>
<rscale>  1 0.30000000E+03</rscale>
<asrwt>0</asrwt>
<pdfrwt beam="1">  1       21 0.74078362E-02 0.30000000E+03</pdfrwt>
<pdfrwt beam="2">0</pdfrwt>
<totfact> 0.14617401E+04</totfact>
</mgrwt>
</event>
<event>
 6    1  0.1273846E-001  0.3000000E+03  0.7818608E-02  0.1093470E+00
         21   -1    0    0  501  502  0.00000000000E+00  0.00000000000E+00  0.45841484722E+01  0.45841484722E+01  0.00000000000E+00 0. -1.
         13   -1    0    0    0    0 -0.00000000000E+00 -0.00000000000E+00 -0.10000000000E+04  0.10000000000E+04  0.00000000000E+00 0.  1.
    9000005    2    1    2  501    0  0.65315921621E+02 -0.28243498083E+01 -0.36852955742E+03  0.37429804494E+03  0.32932024940E+01 0.  0.
         13    1    3    3    0    0  0.43655963829E+02 -0.32894554615E+01 -0.24270862754E+03  0.24662550877E+03  0.00000000000E+00 0.  1.
          1    1    3    3  501    0  0.21659957792E+02  0.46510565323E+00 -0.12582092988E+03  0.12767253616E+03  0.00000000000E+00 0.  1.
         -1    1    1    2    0  502 -0.65315921621E+02  0.28243498083E+01 -0.62688629411E+03  0.63028610354E+03  0.00000000000E+00 0. -1.
<mgrwt>
<rscale>  1 0.30000000E+03</rscale>
<asrwt>0</asrwt>
<pdfrwt beam="1">  1       21 0.16669666E-01 0.30000000E+03</pdfrwt>
<pdfrwt beam="2">0</pdfrwt>
<totfact> 0.33835140E+03</totfact>
</mgrwt>
</event>
<event>
 6    1  0.1273846E-001  0.3000000E+03  0.7818608E-02  0.1093470E+00
         21   -1    0    0  501  502  0.00000000000E+00  0.00000000000E+00  0.14242888716E+01  0.14242888716E+01  0.00000000000E+00 0. -1.
         13   -1    0    0    0    0 -0.00000000000E+00 -0.00000000000E+00 -0.10000000000E+04  0.10000000000E+04  0.00000000000E+00 0.  1.
    9000005    2    1    2  501    0 -0.77964408824E+01  0.30722205749E+02 -0.77028633688E+03  0.77094505594E+03  0.32557768344E+01 0.  0.
         13    1    3    3    0    0 -0.57532620720E+01  0.22546640185E+02 -0.59845496062E+03  0.59890716384E+03  0.00000000000E+00 0.  1.
          1    1    3    3  501    0 -0.20431788104E+01  0.81755655645E+01 -0.17183137626E+03  0.17203789211E+03  0.00000000000E+00 0.  1.
         -1    1    1    2    0  502  0.77964408824E+01 -0.30722205749E+02 -0.22828937425E+03  0.23047923293E+03  0.00000000000E+00 0. -1.
<mgrwt>
<rscale>  1 0.30000000E+03</rscale>
<asrwt>0</asrwt>
<pdfrwt beam="1">  1       21 0.51792432E-02 0.30000000E+03</pdfrwt>
<pdfrwt beam="2">0</pdfrwt>
<totfact> 0.27124566E+04</totfact>
</mgrwt>
</event>
<event>
 6    1  0.1273846E-001  0.3000000E+03  0.7818608E-02  0.1093470E+00
         21   -1    0    0  501  502  0.00000000000E+00  0.00000000000E+00  0.27983029822E+01  0.27983029822E+01  0.00000000000E+00 0. -1.
         13   -1    0    0    0    0 -0.00000000000E+00 -0.00000000000E+00 -0.10000000000E+04  0.10000000000E+04  0.00000000000E+00 0.  1.
    9000005    2    1    2  501    0  0.32599915428E+01 -0.52086558100E+02 -0.44250597189E+03  0.44565291392E+03  0.84467417703E+01 0.  0.
         13    1    3    3    0    0  0.45608996258E+01 -0.17422918382E+02 -0.13475633522E+03  0.13595451362E+03  0.00000000000E+00 0.  1.
          1    1    3    3  501    0 -0.13009080831E+01 -0.34663639718E+02 -0.30774963667E+03  0.30969840030E+03  0.00000000000E+00 0.  1.
         -1    1    1    2    0  502 -0.32599915428E+01  0.52086558100E+02 -0.55469572513E+03  0.55714538906E+03  0.00000000000E+00 0. -1.
<mgrwt>
<rscale>  1 0.30000000E+03</rscale>
<asrwt>0</asrwt>
<pdfrwt beam="1">  1       21 0.10175669E-01 0.30000000E+03</pdfrwt>
<pdfrwt beam="2">0</pdfrwt>
<totfact> 0.83394800E+03</totfact>
</mgrwt>
</event>
<event>
 6    1  0.1273846E-001  0.3000000E+03  0.7818608E-02  0.1093470E+00
         21   -1    0    0  501  502  0.00000000000E+00  0.00000000000E+00  0.12448064436E+01  0.12448064436E+01  0.00000000000E+00 0. -1.
         13   -1    0    0    0    0 -0.00000000000E+00 -0.00000000000E+00 -0.10000000000E+04  0.10000000000E+04  0.00000000000E+00 0.  1.
    9000005    2    1    2  501    0 -0.33645043088E+02  0.74804181242E+01 -0.40099769811E+03  0.40249446704E+03  0.38336046195E+01 0.  0.
         13    1    3    3    0    0 -0.13682122268E+02  0.23469587958E+01 -0.14144090437E+03  0.14212050561E+03  0.00000000000E+00 0.  1.
          3    1    3    3  501    0 -0.19962920820E+02  0.51334593284E+01 -0.25955679374E+03  0.26037396143E+03  0.00000000000E+00 0.  1.
         -1    1    1    2    0  502  0.33645043088E+02 -0.74804181242E+01 -0.59775749544E+03  0.59875033940E+03  0.00000000000E+00 0. -1.
<mgrwt>
<rscale>  1 0.30000000E+03</rscale>
<asrwt>0</asrwt>
<pdfrwt beam="1">  1       21 0.45265784E-02 0.30000000E+03</pdfrwt>
<pdfrwt beam="2">0</pdfrwt>
<totfact> 0.34115483E+04</totfact>
</mgrwt>
</event>
<event>
 6    1  0.1273846E-001  0.3000000E+03  0.7818608E-02  0.1093470E+00
         21   -1    0    0  501  502  0.00000000000E+00  0.00000000000E+00  0.19785028527E+01  0.19785028527E+01  0.00000000000E+00 0. -1.
         13   -1    0    0    0    0 -0.00000000000E+00 -0.00000000000E+00 -0.10000000000E+04  0.10000000000E+04  0.00000000000E+00 0.  1.
    9000005    2    1    2  501    0 -0.15027339127E+02  0.34120921285E+02 -0.77101852935E+03  0.77193414717E+03  0.47641140432E+01 0.  0.
         13    1    3    3    0    0 -0.66601223056E+01  0.16283506827E+02 -0.31615164087E+03  0.31664075835E+03  0.00000000000E+00 0.  1.
          3    1    3    3  501    0 -0.83672168212E+01  0.17837414458E+02 -0.45486688848E+03  0.45529338882E+03  0.00000000000E+00 0.  1.
         -3    1    1    2    0  502  0.15027339127E+02 -0.34120921285E+02 -0.22700296780E+03  0.23004435568E+03  0.00000000000E+00 0. -1.
<mgrwt>
<rscale>  1 0.30000000E+03</rscale>
<asrwt>0</asrwt>
<pdfrwt beam="1">  1       21 0.71945710E-02 0.30000000E+03</pdfrwt>
<pdfrwt beam="2">0</pdfrwt>
<totfact> 0.15382642E+04</totfact>
</mgrwt>
</event>
<event>
 6    1  0.1273846E-001  0.3000000E+03  0.7818608E-02  0.1093470E+00
         21   -1    0    0  501  502  0.00000000000E+00  0.00000000000E+00  0.23244390838E+01  0.23244390838E+01  0.00000000000E+00 0. -1.
         13   -1    0    0    0    0 -0.00000000000E+00 -0.00000000000E+00 -0.10000000000E+04  0.10000000000E+04  0.00000000000E+00 0.  1.
    9000005    2    1    2  501    0 -0.44254461183E+02  0.24771074076E+01 -0.69459270504E+03  0.69601771222E+03  0.41275215208E+01 0.  0.
         13    1    3    3    0    0 -0.28529519246E+02  0.34107416409E+01 -0.43623578376E+03  0.43718099874E+03  0.00000000000E+00 0.  1.
          3    1    3    3  501    0 -0.15724941937E+02 -0.93363423324E+00 -0.25835692128E+03  0.25883671348E+03  0.00000000000E+00 0.  1.
         -3    1    1    2    0  502  0.44254461183E+02 -0.24771074076E+01 -0.30308285587E+03  0.30630672686E+03  0.00000000000E+00 0. -1.
<mgrwt>
<rscale>  1 0.30000000E+03</rscale>
<asrwt>0</asrwt>
<pdfrwt beam="1">  1       21 0.84525236E-02 0.30000000E+03</pdfrwt>
<pdfrwt beam="2">0</pdfrwt>
<totfact> 0.11595199E+04</totfact>
</mgrwt>
</event>
<event>
 6    1  0.1273846E-001  0.3000000E+03  0.7818608E-02  0.1093470E+00
         21   -1    0    0  501  502  0.00000000000E+00  0.00000000000E+00  0.29915419635E+01  0.29915419635E+01  0.00000000000E+00 0. -1.
         13   -1    0    0    0    0 -0.00000000000E+00 -0.00000000000E+00 -0.10000000000E+04  0.10000000000E+04  0.00000000000E+00 0.  1.
    9000005    2    1    2  501    0  0.29578385659E+02  0.21767363725E+02 -0.86998999708E+03  0.87077055858E+03  0.31735875536E+01 0.  0.
         13    1    3    3    0    0  0.76945086717E+01  0.70543495147E+01 -0.22628189888E+03  0.22652255312E+03  0.00000000000E+00 0.  1.
          1    1    3    3  501    0  0.21883876988E+02  0.14713014211E+02 -0.64370809819E+03  0.64424800546E+03  0.00000000000E+00 0.  1.
         -1    1    1    2    0  502 -0.29578385659E+02 -0.21767363725E+02 -0.12701846096E+03  0.13222098338E+03  0.00000000000E+00 0. -1.
<mgrwt>
<rscale>  1 0.30000000E+03</rscale>
<asrwt>0</asrwt>
<pdfrwt beam="1">  1       21 0.10878357E-01 0.30000000E+03</pdfrwt>
<pdfrwt beam="2">0</pdfrwt>
<totfact> 0.73985011E+03</totfact>
</mgrwt>
</event>
<event>
 6    1  0.1273846E-001  0.3000000E+03  0.7818608E-02  0.1093470E+00
         21   -1    0    0  501  502  0.00000000000E+00  0.00000000000E+00  0.13241107764E+01  0.13241107764E+01  0.00000000000E+00 0. -1.
         13   -1    0    0    0    0 -0.00000000000E+00 -0.00000000000E+00 -0.10000000000E+04  0.10000000000E+04  0.00000000000E+00 0.  1.
    9000005    2    1    2  501    0 -0.33860069256E+02  0.25559671034E+01 -0.66432740591E+03  0.66525574637E+03  0.90149089344E+01 0.  0.
         13    1    3    3    0    0 -0.31147104993E+02  0.49150041700E+01 -0.59285579418E+03  0.59369376964E+03  0.00000000000E+00 0.  1.
          3    1    3    3  501    0 -0.27129642625E+01 -0.23590370667E+01 -0.71471611724E+02  0.71561976729E+02  0.00000000000E+00 0.  1.
         -1    1    1    2    0  502  0.33860069256E+02 -0.25559671034E+01 -0.33434848332E+03  0.33606836441E+03  0.00000000000E+00 0. -1.
<mgrwt>
<rscale>  1 0.30000000E+03</rscale>
<asrwt>0</asrwt>
<pdfrwt beam="1">  1       21 0.48149584E-02 0.30000000E+03</pdfrwt>
<pdfrwt beam="2">0</pdfrwt>
<totfact> 0.30715476E+04</totfact>
</mgrwt>
</event>
<event>
 6    1  0.1273846E-001  0.3000000E+03  0.7818608E-02  0.1093470E+00
         21   -1    0    0  501  502  0.00000000000E+00  0.00000000000E+00  0.14588421475E+01  0.14588421475E+01  0.00000000000E+00 0. -1.
         13   -1    0    0    0    0 -0.00000000000E+00 -0.00000000000E+00 -0.10000000000E+04  0.10000000000E+04  0.00000000000E+00 0.  1.
    9000005    2    1    2  501    0  0.28979532402E+02 -0.23065819744E+02 -0.61883891986E+03  0.61995440590E+03  0.31640677501E+01 0.  0.
         13    1    3    3    0    0  0.11965527266E+02 -0.10451477051E+02 -0.28862915843E+03  0.28906607948E+03  0.00000000000E+00 0.  1.
          3    1    3    3  501    0  0.17014005136E+02 -0.12614342693E+02 -0.33020976144E+03  0.33088832642E+03  0.00000000000E+00 0.  1.
         -3    1    1    2    0  502 -0.28979532402E+02  0.23065819744E+02 -0.37970223799E+03  0.38150443624E+03  0.00000000000E+00 0. -1.
<mgrwt>
<rscale>  1 0.30000000E+03</rscale>
<asrwt>0</asrwt>
<pdfrwt beam="1">  1       21 0.53048917E-02 0.30000000E+03</pdfrwt>
<pdfrwt beam="2">0</pdfrwt>
<totfact> 0.26035750E+04</totfact>
</mgrwt>
</event>
<event>
 6    1  0.1273846E-001  0.3000000E+03  0.7818608E-02  0.1093470E+00
         21   -1    0    0  501  502  0.00000000000E+00  0.00000000000E+00  0.25475557814E+01  0.25475557814E+01  0.00000000000E+00 0. -1.
         13   -1    0    0    0    0 -0.00000000000E+00 -0.00000000000E+00 -0.10000000000E+04  0.10000000000E+04  0.00000000000E+00 0.  1.
    9000005    2    1    2  501    0  0.36485044508E+01 -0.37908895033E+02 -0.82738634008E+03  0.82826939971E+03  0.34127459510E+01 0.  0.
         13    1    3    3    0    0  0.40900776413E+00 -0.18406739013E+02 -0.42141300620E+03  0.42181500344E+03  0.00000000000E+00 0.  1.
          3    1    3    3  501    0  0.32394966867E+01 -0.19502156020E+02 -0.40597333388E+03  0.40645439627E+03  0.00000000000E+00 0.  1.
         -1    1    1    2    0  502 -0.36485044508E+01  0.37908895033E+02 -0.17006610414E+03  0.17427815607E+03  0.00000000000E+00 0. -1.
<mgrwt>
<rscale>  1 0.30000000E+03</rscale>
<asrwt>0</asrwt>
<pdfrwt beam="1">  1       21 0.92638587E-02 0.30000000E+03</pdfrwt>
<pdfrwt beam="2">0</pdfrwt>
<totfact> 0.98594729E+03</totfact>
</mgrwt>
</event>
<event>
 6    1  0.1273846E-001  0.3000000E+03  0.7818608E-02  0.1093470E+00
         21   -1    0    0  501  502  0.00000000000E+00  0.00000000000E+00  0.91659502098E+00  0.91659502098E+00  0.00000000000E+00 0. -1.
         13   -1    0    0    0    0 -0.00000000000E+00 -0.00000000000E+00 -0.10000000000E+04  0.10000000000E+04  0.00000000000E+00 0.  1.
    9000005    2    1    2  501    0 -0.28629189735E+02  0.94092745444E+01 -0.52924729957E+03  0.53011501166E+03  0.33251360036E+01 0.  0.
         13    1    3    3    0    0 -0.22448950100E+02  0.84413711258E+01 -0.43451170996E+03  0.43517311291E+03  0.00000000000E+00 0.  1.
          3    1    3    3  501    0 -0.61802396341E+01  0.96790341866E+00 -0.94735589606E+02  0.94941898743E+02  0.00000000000E+00 0.  1.
         -1    1    1    2    0  502  0.28629189735E+02 -0.94092745444E+01 -0.46983610541E+03  0.47080158336E+03  0.00000000000E+00 0. -1.
<mgrwt>
<rscale>  1 0.30000000E+03</rscale>
<asrwt>0</asrwt>
<pdfrwt beam="1">  1       21 0.33330798E-02 0.30000000E+03</pdfrwt>
<pdfrwt beam="2">0</pdfrwt>
<totfact> 0.57095374E+04</totfact>
</mgrwt>
</event>
<event>
 6    1  0.1273846E-001  0.3000000E+03  0.7818608E-02  0.1093470E+00
         21   -1    0    0  501  502  0.00000000000E+00  0.00000000000E+00  0.21368636699E+01  0.21368636699E+01  0.00000000000E+00 0. -1.
         13   -1    0    0    0    0 -0.00000000000E+00 -0.00000000000E+00 -0.10000000000E+04  0.10000000000E+04  0.00000000000E+00 0.  1.
    9000005    2    1    2  501    0  0.21904306067E+01  0.41416939577E+02 -0.71944749566E+03  0.72064897790E+03  0.31763901745E+01 0.  0.
         13    1    3    3    0    0  0.12693152973E+01  0.38078255796E+02 -0.66701521761E+03  0.66810243619E+03  0.00000000000E+00 0.  1.
          1    1    3    3  501    0  0.92111530941E+00  0.33386837810E+01 -0.52432278057E+02  0.52546541704E+02  0.00000000000E+00 0.  1.
         -1    1    1    2    0  502 -0.21904306067E+01 -0.41416939577E+02 -0.27841564067E+03  0.28148788577E+03  0.00000000000E+00 0. -1.
<mgrwt>
<rscale>  1 0.30000000E+03</rscale>
<asrwt>0</asrwt>
<pdfrwt beam="1">  1       21 0.77704297E-02 0.30000000E+03</pdfrwt>
<pdfrwt beam="2">0</pdfrwt>
<totfact> 0.13443587E+04</totfact>
</mgrwt>
</event>
<event>
 6    1  0.1273846E-001  0.3000000E+03  0.7818608E-02  0.1093470E+00
         21   -1    0    0  501  502  0.00000000000E+00  0.00000000000E+00  0.14070696349E+01  0.14070696349E+01  0.00000000000E+00 0. -1.
         13   -1    0    0    0    0 -0.00000000000E+00 -0.00000000000E+00 -0.10000000000E+04  0.10000000000E+04  0.00000000000E+00 0.  1.
    9000005    2    1    2  501    0  0.24894991595E+02 -0.18305468821E+02 -0.78258103961E+03  0.78319619056E+03  0.28876580263E+01 0.  0.
         13    1    3    3    0    0  0.65130005698E+01 -0.59939368643E+01 -0.24626233663E+03  0.24642135642E+03  0.00000000000E+00 0.  1.
          3    1    3    3  501    0  0.18381991025E+02 -0.12311531957E+02 -0.53631870297E+03  0.53677483415E+03  0.00000000000E+00 0.  1.
         -3    1    1    2    0  502 -0.24894991595E+02  0.18305468821E+02 -0.21601189076E+03  0.21821087907E+03  0.00000000000E+00 0. -1.
<mgrwt>
<rscale>  1 0.30000000E+03</rscale>
<asrwt>0</asrwt>
<pdfrwt beam="1">  1       21 0.51166276E-02 0.30000000E+03</pdfrwt>
<pdfrwt beam="2">0</pdfrwt>
<totfact> 0.27693755E+04</totfact>
</mgrwt>
</event>
<event>
 6    1  0.1273846E-001  0.3000000E+03  0.7818608E-02  0.1093470E+00
         21   -1    0    0  501  502  0.00000000000E+00  0.00000000000E+00  0.12205786381E+01  0.12205786381E+01  0.00000000000E+00 0. -1.
         13   -1    0    0    0    0 -0.00000000000E+00 -0.00000000000E+00 -0.10000000000E+04  0.10000000000E+04  0.00000000000E+00 0.  1.
    9000005    2    1    2  501    0 -0.10673690860E+02  0.31242986734E+02 -0.66047421355E+03  0.66130814060E+03  0.34954498990E+01 0.  0.
         13    1    3    3    0    0 -0.77867261160E+01  0.21684659950E+02 -0.49061279591E+03  0.49115351276E+03  0.00000000000E+00 0.  1.
          3    1    3    3  501    0 -0.28869647435E+01  0.95583267843E+01 -0.16986141764E+03  0.17015462785E+03  0.00000000000E+00 0.  1.
         -3    1    1    2    0  502  0.10673690860E+02 -0.31242986734E+02 -0.33830520781E+03  0.33991243803E+03  0.00000000000E+00 0. -1.
<mgrwt>
<rscale>  1 0.30000000E+03</rscale>
<asrwt>0</asrwt>
<pdfrwt beam="1">  1       21 0.44384771E-02 0.30000000E+03</pdfrwt>
<pdfrwt beam="2">0</pdfrwt>
<totfact> 0.35272148E+04</totfact>
</mgrwt>
</event>
<event>
 6    1  0.1273846E-001  0.3000000E+03  0.7818608E-02  0.1093470E+00
         21   -1    0    0  501  502  0.00000000000E+00  0.00000000000E+00  0.15256274831E+01  0.15256274831E+01  0.00000000000E+00 0. -1.
         13   -1    0    0    0    0 -0.00000000000E+00 -0.00000000000E+00 -0.10000000000E+04  0.10000000000E+04  0.00000000000E+00 0.  1.
    9000005    2    1    2  501    0 -0.30185342338E+02 -0.15200235982E+00 -0.81652355096E+03  0.81708788877E+03  0.32757752687E+01 0.  0.
         13    1    3    3    0    0 -0.62795251848E+01  0.84510482879E+00 -0.14548794308E+03  0.14562585011E+03  0.00000000000E+00 0.  1.
          3    1    3    3  501    0 -0.23905817153E+02 -0.99710718861E+00 -0.67103560788E+03  0.67146203866E+03  0.00000000000E+00 0.  1.
         -3    1    1    2    0  502  0.30185342338E+02  0.15200235982E+00 -0.18195082155E+03  0.18443773871E+03  0.00000000000E+00 0. -1.
<mgrwt>
<rscale>  1 0.30000000E+03</rscale>
<asrwt>0</asrwt>
<pdfrwt beam="1">  1       21 0.55477480E-02 0.30000000E+03</pdfrwt>
<pdfrwt beam="2">0</pdfrwt>
<totfact> 0.24113962E+04</totfact>
</mgrwt>
</event>
<event>
 6    1  0.1273846E-001  0.3000000E+03  0.7818608E-02  0.1093470E+00
         21   -1    0    0  501  502  0.00000000000E+00  0.00000000000E+00  0.46244026543E+01  0.46244026543E+01  0.00000000000E+00 0. -1.
         13   -1    0    0    0    0 -0.00000000000E+00 -0.00000000000E+00 -0.10000000000E+04  0.10000000000E+04  0.00000000000E+00 0.  1.
    9000005    2    1    2  501    0  0.27929180869E+01  0.66166586744E+02 -0.61038487452E+03  0.61397920013E+03  0.38659484833E+01 0.  0.
         13    1    3    3    0    0  0.32782357180E+01  0.64622823985E+02 -0.59341360676E+03  0.59693095488E+03  0.00000000000E+00 0.  1.
          1    1    3    3  501    0 -0.48531763107E+00  0.15437627591E+01 -0.16971267761E+02  0.17048245249E+02  0.00000000000E+00 0.  1.
         -1    1    1    2    0  502 -0.27929180869E+01 -0.66166586744E+02 -0.38499072283E+03  0.39064520253E+03  0.00000000000E+00 0. -1.
<mgrwt>
<rscale>  1 0.30000000E+03</rscale>
<asrwt>0</asrwt>
<pdfrwt beam="1">  1       21 0.16816045E-01 0.30000000E+03</pdfrwt>
<pdfrwt beam="2">0</pdfrwt>
<totfact> 0.33286319E+03</totfact>
</mgrwt>
</event>
<event>
 6    1  0.1273846E-001  0.3000000E+03  0.7818608E-02  0.1093470E+00
         21   -1    0    0  501  502  0.00000000000E+00  0.00000000000E+00  0.59240007600E+01  0.59240007600E+01  0.00000000000E+00 0. -1.
         13   -1    0    0    0    0 -0.00000000000E+00 -0.00000000000E+00 -0.10000000000E+04  0.10000000000E+04  0.00000000000E+00 0.  1.
    9000005    2    1    2  501    0 -0.17671055604E+02 -0.46461857903E+02 -0.88095569407E+03  0.88236359494E+03  0.34070963673E+01 0.  0.
         13    1    3    3    0    0 -0.10785051795E+02 -0.25479103278E+02 -0.51365368811E+03  0.51439830225E+03  0.00000000000E+00 0.  1.
          1    1    3    3  501    0 -0.68860038085E+01 -0.20982754625E+02 -0.36730200596E+03  0.36796529269E+03  0.00000000000E+00 0.  1.
         -3    1    1    2    0  502  0.17671055604E+02  0.46461857903E+02 -0.11312030517E+03  0.12356040582E+03  0.00000000000E+00 0. -1.
<mgrwt>
<rscale>  1 0.30000000E+03</rscale>
<asrwt>0</asrwt>
<pdfrwt beam="1">  1       21 0.21541866E-01 0.30000000E+03</pdfrwt>
<pdfrwt beam="2">0</pdfrwt>
<totfact> 0.20811461E+03</totfact>
</mgrwt>
</event>
<event>
 6    1  0.1273846E-001  0.3000000E+03  0.7818608E-02  0.1093470E+00
         21   -1    0    0  501  502  0.00000000000E+00  0.00000000000E+00  0.14944888173E+01  0.14944888173E+01  0.00000000000E+00 0. -1.
         13   -1    0    0    0    0 -0.00000000000E+00 -0.00000000000E+00 -0.10000000000E+04  0.10000000000E+04  0.00000000000E+00 0.  1.
    9000005    2    1    2  501    0 -0.26776322351E+02 -0.13536705824E+02 -0.81431119025E+03  0.81487251341E+03  0.37795095079E+01 0.  0.
         13    1    3    3    0    0 -0.16426333825E+02 -0.10333451964E+02 -0.52207661663E+03  0.52243717163E+03  0.00000000000E+00 0.  1.
          3    1    3    3  501    0 -0.10349988526E+02 -0.32032538596E+01 -0.29223457363E+03  0.29243534178E+03  0.00000000000E+00 0.  1.
         -1    1    1    2    0  502  0.26776322351E+02  0.13536705824E+02 -0.18419432093E+03  0.18662197541E+03  0.00000000000E+00 0. -1.
<mgrwt>
<rscale>  1 0.30000000E+03</rscale>
<asrwt>0</asrwt>
<pdfrwt beam="1">  1       21 0.54345163E-02 0.30000000E+03</pdfrwt>
<pdfrwt beam="2">0</pdfrwt>
<totfact> 0.24981765E+04</totfact>
</mgrwt>
</event>
<event>
 6    1  0.1273846E-001  0.3000000E+03  0.7818608E-02  0.1093470E+00
         21   -1    0    0  501  502  0.00000000000E+00  0.00000000000E+00  0.20765556722E+01  0.20765556722E+01  0.00000000000E+00 0. -1.
         13   -1    0    0    0    0 -0.00000000000E+00 -0.00000000000E+00 -0.10000000000E+04  0.10000000000E+04  0.00000000000E+00 0.  1.
    9000005    2    1    2  501    0 -0.61677995659E+01  0.43511279554E+02 -0.62991870744E+03  0.63145712881E+03  0.30420938557E+01 0.  0.
         13    1    3    3    0    0 -0.43637989293E+01  0.22067855132E+02 -0.30898524517E+03  0.30980302565E+03  0.00000000000E+00 0.  1.
          1    1    3    3  501    0 -0.18040006366E+01  0.21443424422E+02 -0.32093346228E+03  0.32165410316E+03  0.00000000000E+00 0.  1.
         -3    1    1    2    0  502  0.61677995659E+01 -0.43511279554E+02 -0.36800473688E+03  0.37061942686E+03  0.00000000000E+00 0. -1.
<mgrwt>
<rscale>  1 0.30000000E+03</rscale>
<asrwt>0</asrwt>
<pdfrwt beam="1">  1       21 0.75511275E-02 0.30000000E+03</pdfrwt>
<pdfrwt beam="2">0</pdfrwt>
<totfact> 0.14135293E+04</totfact>
</mgrwt>
</event>
<event>
 6    1  0.1273846E-001  0.3000000E+03  0.7818608E-02  0.1093470E+00
         21   -1    0    0  501  502  0.00000000000E+00  0.00000000000E+00  0.14538848987E+01  0.14538848987E+01  0.00000000000E+00 0. -1.
         13   -1    0    0    0    0 -0.00000000000E+00 -0.00000000000E+00 -0.10000000000E+04  0.10000000000E+04  0.00000000000E+00 0.  1.
    9000005    2    1    2  501    0 -0.66129803892E+01 -0.37300766007E+02 -0.45108623144E+03  0.45268489628E+03  0.31222537314E+01 0.  0.
         13    1    3    3    0    0 -0.46900465949E+01 -0.22935895325E+02 -0.29483299093E+03  0.29576095816E+03  0.00000000000E+00 0.  1.
          1    1    3    3  501    0 -0.19229337943E+01 -0.14364870682E+02 -0.15625324051E+03  0.15692393812E+03  0.00000000000E+00 0.  1.
         -1    1    1    2    0  502  0.66129803892E+01  0.37300766007E+02 -0.54745988366E+03  0.54876898862E+03  0.00000000000E+00 0. -1.
<mgrwt>
<rscale>  1 0.30000000E+03</rscale>
<asrwt>0</asrwt>
<pdfrwt beam="1">  1       21 0.52868653E-02 0.30000000E+03</pdfrwt>
<pdfrwt beam="2">0</pdfrwt>
<totfact> 0.26187757E+04</totfact>
</mgrwt>
</event>
<event>
 6    1  0.1273846E-001  0.3000000E+03  0.7818608E-02  0.1093470E+00
         21   -1    0    0  501  502  0.00000000000E+00  0.00000000000E+00  0.92128225560E+00  0.92128225560E+00  0.00000000000E+00 0. -1.
         13   -1    0    0    0    0 -0.00000000000E+00 -0.00000000000E+00 -0.10000000000E+04  0.10000000000E+04  0.00000000000E+00 0.  1.
    9000005    2    1    2  501    0 -0.18018801287E+01 -0.30215642840E+02 -0.50632424569E+03  0.50723798137E+03  0.31458108589E+01 0.  0.
         13    1    3    3    0    0 -0.10048111996E+01 -0.25320146058E+02 -0.40441959135E+03  0.40521269145E+03  0.00000000000E+00 0.  1.
          3    1    3    3  501    0 -0.79706892912E+00 -0.48954967819E+01 -0.10190465434E+03  0.10202528993E+03  0.00000000000E+00 0.  1.
         -1    1    1    2    0  502  0.18018801287E+01  0.30215642840E+02 -0.49275447205E+03  0.49368330088E+03  0.00000000000E+00 0. -1.
<mgrwt>
<rscale>  1 0.30000000E+03</rscale>
<asrwt>0</asrwt>
<pdfrwt beam="1">  1       21 0.33501244E-02 0.30000000E+03</pdfrwt>
<pdfrwt beam="2">0</pdfrwt>
<totfact> 0.56611300E+04</totfact>
</mgrwt>
</event>
<event>
 6    1  0.1519956E-001  0.3000000E+03  0.7818608E-02  0.1093470E+00
         21   -1    0    0  501  502  0.00000000000E+00  0.00000000000E+00  0.21225331455E+01  0.21225331455E+01  0.00000000000E+00 0. -1.
         13   -1    0    0    0    0 -0.00000000000E+00 -0.00000000000E+00 -0.10000000000E+04  0.10000000000E+04  0.00000000000E+00 0.  1.
    9000005    2    1    2  501    0 -0.90737427476E+01 -0.28780283849E+02 -0.87524780643E+03  0.87583448477E+03  0.10802060534E+02 0.  0.
         13    1    3    3    0    0  0.16282347861E+01 -0.43491609035E+01 -0.21151938276E+03  0.21157035623E+03  0.00000000000E+00 0.  1.
          1    1    3    3  501    0 -0.10701977534E+02 -0.24431122945E+02 -0.66372842366E+03  0.66426412854E+03  0.00000000000E+00 0.  1.
         -3    1    1    2    0  502  0.90737427476E+01  0.28780283849E+02 -0.12262966043E+03  0.12628804838E+03  0.00000000000E+00 0. -1.
<mgrwt>
<rscale>  1 0.30000000E+03</rscale>
<asrwt>0</asrwt>
<pdfrwt beam="1">  1       21 0.77183186E-02 0.30000000E+03</pdfrwt>
<pdfrwt beam="2">0</pdfrwt>
<totfact> 0.13603144E+04</totfact>
</mgrwt>
</event>
<event>
 6    1  0.1273846E-001  0.3000000E+03  0.7818608E-02  0.1093470E+00
         21   -1    0    0  501  502  0.00000000000E+00  0.00000000000E+00  0.27646656242E+01  0.27646656242E+01  0.00000000000E+00 0. -1.
         13   -1    0    0    0    0 -0.00000000000E+00 -0.00000000000E+00 -0.10000000000E+04  0.10000000000E+04  0.00000000000E+00 0.  1.
    9000005    2    1    2  501    0  0.15150681790E+01 -0.40202208389E+02 -0.82105433903E+03  0.82204871140E+03  0.39170498279E+01 0.  0.
         13    1    3    3    0    0  0.18150211891E+01 -0.27725469393E+02 -0.59873664457E+03  0.59938098527E+03  0.00000000000E+00 0.  1.
          3    1    3    3  501    0 -0.29995301006E+00 -0.12476738996E+02 -0.22231769447E+03  0.22266772613E+03  0.00000000000E+00 0.  1.
         -1    1    1    2    0  502 -0.15150681790E+01  0.40202208389E+02 -0.17618099534E+03  0.18071595422E+03  0.00000000000E+00 0. -1.
<mgrwt>
<rscale>  1 0.30000000E+03</rscale>
<asrwt>0</asrwt>
<pdfrwt beam="1">  1       21 0.10053351E-01 0.30000000E+03</pdfrwt>
<pdfrwt beam="2">0</pdfrwt>
<totfact> 0.85217769E+03</totfact>
</mgrwt>
</event>
<event>
 6    1  0.1273846E-001  0.3000000E+03  0.7818608E-02  0.1093470E+00
         21   -1    0    0  501  502  0.00000000000E+00  0.00000000000E+00  0.16414417250E+01  0.16414417250E+01  0.00000000000E+00 0. -1.
         13   -1    0    0    0    0 -0.00000000000E+00 -0.00000000000E+00 -0.10000000000E+04  0.10000000000E+04  0.00000000000E+00 0.  1.
    9000005    2    1    2  501    0  0.30436371355E+02  0.16021531660E+01 -0.82869235591E+03  0.82925942462E+03  0.33515641759E+01 0.  0.
         13    1    3    3    0    0  0.83023301812E+01  0.19358839944E+01 -0.22802275610E+03  0.22818206247E+03  0.00000000000E+00 0.  1.
          1    1    3    3  501    0  0.22134041173E+02 -0.33373082839E+00 -0.60066959981E+03  0.60107736215E+03  0.00000000000E+00 0.  1.
         -1    1    1    2    0  502 -0.30436371355E+02 -0.16021531660E+01 -0.16966620237E+03  0.17238201711E+03  0.00000000000E+00 0. -1.
<mgrwt>
<rscale>  1 0.30000000E+03</rscale>
<asrwt>0</asrwt>
<pdfrwt beam="1">  1       21 0.59688916E-02 0.30000000E+03</pdfrwt>
<pdfrwt beam="2">0</pdfrwt>
<totfact> 0.21261404E+04</totfact>
</mgrwt>
</event>
<event>
 6    1  0.1273846E-001  0.3000000E+03  0.7818608E-02  0.1093470E+00
         21   -1    0    0  501  502  0.00000000000E+00  0.00000000000E+00  0.17433701710E+01  0.17433701710E+01  0.00000000000E+00 0. -1.
         13   -1    0    0    0    0 -0.00000000000E+00 -0.00000000000E+00 -0.10000000000E+04  0.10000000000E+04  0.00000000000E+00 0.  1.
    9000005    2    1    2  501    0 -0.28342308776E+02 -0.13509785807E+02 -0.82836555464E+03  0.82897538064E+03  0.49888682453E+01 0.  0.
         13    1    3    3    0    0 -0.13683592365E+02 -0.42359860260E+01 -0.33897737850E+03  0.33927989539E+03  0.00000000000E+00 0.  1.
          1    1    3    3  501    0 -0.14658716411E+02 -0.92737997806E+01 -0.48938817614E+03  0.48969548525E+03  0.00000000000E+00 0.  1.
         -3    1    1    2    0  502  0.28342308776E+02  0.13509785807E+02 -0.16989107519E+03  0.17276798954E+03  0.00000000000E+00 0. -1.
<mgrwt>
<rscale>  1 0.30000000E+03</rscale>
<asrwt>0</asrwt>
<pdfrwt beam="1">  1       21 0.63395413E-02 0.30000000E+03</pdfrwt>
<pdfrwt beam="2">0</pdfrwt>
<totfact> 0.19161038E+04</totfact>
</mgrwt>
</event>
<event>
 6    1  0.1273846E-001  0.3000000E+03  0.7818608E-02  0.1093470E+00
         21   -1    0    0  501  502  0.00000000000E+00  0.00000000000E+00  0.12474370255E+01  0.12474370255E+01  0.00000000000E+00 0. -1.
         13   -1    0    0    0    0 -0.00000000000E+00 -0.00000000000E+00 -0.10000000000E+04  0.10000000000E+04  0.00000000000E+00 0.  1.
    9000005    2    1    2  501    0 -0.17741429668E+02 -0.27960798811E+02 -0.67151793361E+03  0.67234157321E+03  0.32080071800E+01 0.  0.
         13    1    3    3    0    0 -0.11180218932E+02 -0.16865184249E+02 -0.44009347470E+03  0.44055839364E+03  0.00000000000E+00 0.  1.
          3    1    3    3  501    0 -0.65612107352E+01 -0.11095614562E+02 -0.23142445892E+03  0.23178317957E+03  0.00000000000E+00 0.  1.
         -1    1    1    2    0  502  0.17741429668E+02  0.27960798811E+02 -0.32723462936E+03  0.32890586381E+03  0.00000000000E+00 0. -1.
<mgrwt>
<rscale>  1 0.30000000E+03</rscale>
<asrwt>0</asrwt>
<pdfrwt beam="1">  1       21 0.45361442E-02 0.30000000E+03</pdfrwt>
<pdfrwt beam="2">0</pdfrwt>
<totfact> 0.33993425E+04</totfact>
</mgrwt>
</event>
<event>
 6    1  0.1273846E-001  0.3000000E+03  0.7818608E-02  0.1093470E+00
         21   -1    0    0  501  502  0.00000000000E+00  0.00000000000E+00  0.27881574356E+01  0.27881574356E+01  0.00000000000E+00 0. -1.
         13   -1    0    0    0    0 -0.00000000000E+00 -0.00000000000E+00 -0.10000000000E+04  0.10000000000E+04  0.00000000000E+00 0.  1.
    9000005    2    1    2  501    0  0.28467388686E+02 -0.18283077905E+02 -0.88323273186E+03  0.88389366289E+03  0.48255064356E+01 0.  0.
         13    1    3    3    0    0  0.26037521130E+02 -0.16842238438E+02 -0.83738792561E+03  0.83796190335E+03  0.00000000000E+00 0.  1.
          3    1    3    3  501    0  0.24298675558E+01 -0.14408394666E+01 -0.45844806241E+02  0.45931759535E+02  0.00000000000E+00 0.  1.
         -1    1    1    2    0  502 -0.28467388686E+02  0.18283077905E+02 -0.11397911071E+03  0.11889449455E+03  0.00000000000E+00 0. -1.
<mgrwt>
<rscale>  1 0.30000000E+03</rscale>
<asrwt>0</asrwt>
<pdfrwt beam="1">  1       21 0.10138776E-01 0.30000000E+03</pdfrwt>
<pdfrwt beam="2">0</pdfrwt>
<totfact> 0.83938325E+03</totfact>
</mgrwt>
</event>
<event>
 6    1  0.1273846E-001  0.3000000E+03  0.7818608E-02  0.1093470E+00
         21   -1    0    0  501  502  0.00000000000E+00  0.00000000000E+00  0.10324196903E+01  0.10324196903E+01  0.00000000000E+00 0. -1.
         13   -1    0    0    0    0 -0.00000000000E+00 -0.00000000000E+00 -0.10000000000E+04  0.10000000000E+04  0.00000000000E+00 0.  1.
    9000005    2    1    2  501    0 -0.29317094305E+02  0.64268118704E+01 -0.66953955482E+03  0.67024000759E+03  0.61364784589E+01 0.  0.
         13    1    3    3    0    0 -0.66209985471E+01  0.63469407322E+00 -0.20817173294E+03  0.20827796536E+03  0.00000000000E+00 0.  1.
          1    1    3    3  501    0 -0.22696095758E+02  0.57921177972E+01 -0.46136782188E+03  0.46196204223E+03  0.00000000000E+00 0.  1.
         -3    1    1    2    0  502  0.29317094305E+02 -0.64268118704E+01 -0.32942802549E+03  0.33079241210E+03  0.00000000000E+00 0. -1.
<mgrwt>
<rscale>  1 0.30000000E+03</rscale>
<asrwt>0</asrwt>
<pdfrwt beam="1">  1       21 0.37542613E-02 0.30000000E+03</pdfrwt>
<pdfrwt beam="2">0</pdfrwt>
<totfact> 0.46777973E+04</totfact>
</mgrwt>
</event>
<event>
 6    1  0.1273846E-001  0.3000000E+03  0.7818608E-02  0.1093470E+00
         21   -1    0    0  501  502  0.00000000000E+00  0.00000000000E+00  0.15078335406E+01  0.15078335406E+01  0.00000000000E+00 0. -1.
         13   -1    0    0    0    0 -0.00000000000E+00 -0.00000000000E+00 -0.10000000000E+04  0.10000000000E+04  0.00000000000E+00 0.  1.
    9000005    2    1    2  501    0  0.15744763319E+02  0.34045060761E+02 -0.59657326819E+03  0.59784242195E+03  0.10437117495E+02 0.  0.
         13    1    3    3    0    0  0.24690614438E+01  0.17387019792E+02 -0.25160040192E+03  0.25221254324E+03  0.00000000000E+00 0.  1.
          1    1    3    3  501    0  0.13275701875E+02  0.16658040969E+02 -0.34497286628E+03  0.34562987871E+03  0.00000000000E+00 0.  1.
         -1    1    1    2    0  502 -0.15744763319E+02 -0.34045060761E+02 -0.40191889827E+03  0.40366541159E+03  0.00000000000E+00 0. -1.
<mgrwt>
<rscale>  1 0.30000000E+03</rscale>
<asrwt>0</asrwt>
<pdfrwt beam="1">  1       21 0.54830426E-02 0.30000000E+03</pdfrwt>
<pdfrwt beam="2">0</pdfrwt>
<totfact> 0.24604063E+04</totfact>
</mgrwt>
</event>
<event>
 6    1  0.1273846E-001  0.3000000E+03  0.7818608E-02  0.1093470E+00
         21   -1    0    0  501  502  0.00000000000E+00  0.00000000000E+00  0.14399248603E+01  0.14399248603E+01  0.00000000000E+00 0. -1.
         13   -1    0    0    0    0 -0.00000000000E+00 -0.00000000000E+00 -0.10000000000E+04  0.10000000000E+04  0.00000000000E+00 0.  1.
    9000005    2    1    2  501    0 -0.32315846030E+02 -0.17900068373E+02 -0.61077780687E+03  0.61190197557E+03  0.31260182157E+01 0.  0.
         13    1    3    3    0    0 -0.75622652999E+01 -0.57378289016E+01 -0.15399581685E+03  0.15428811408E+03  0.00000000000E+00 0.  1.
          1    1    3    3  501    0 -0.24753580730E+02 -0.12162239472E+02 -0.45678199002E+03  0.45761386150E+03  0.00000000000E+00 0.  1.
         -3    1    1    2    0  502  0.32315846030E+02  0.17900068373E+02 -0.38778226827E+03  0.38953794929E+03  0.00000000000E+00 0. -1.
<mgrwt>
<rscale>  1 0.30000000E+03</rscale>
<asrwt>0</asrwt>
<pdfrwt beam="1">  1       21 0.52361014E-02 0.30000000E+03</pdfrwt>
<pdfrwt beam="2">0</pdfrwt>
<totfact> 0.26623283E+04</totfact>
</mgrwt>
</event>
<event>
 6    1  0.1273846E-001  0.3000000E+03  0.7818608E-02  0.1093470E+00
         21   -1    0    0  501  502  0.00000000000E+00  0.00000000000E+00  0.16240211551E+01  0.16240211551E+01  0.00000000000E+00 0. -1.
         13   -1    0    0    0    0 -0.00000000000E+00 -0.00000000000E+00 -0.10000000000E+04  0.10000000000E+04  0.00000000000E+00 0.  1.
    9000005    2    1    2  501    0  0.31581260901E+02  0.10129412028E+02 -0.78267578900E+03  0.78338893477E+03  0.41050472887E+01 0.  0.
         13    1    3    3    0    0  0.13907101635E+02  0.64242582789E+01 -0.33986095297E+03  0.34020603452E+03  0.00000000000E+00 0.  1.
          1    1    3    3  501    0  0.17674159267E+02  0.37051537489E+01 -0.44281483603E+03  0.44318290026E+03  0.00000000000E+00 0.  1.
         -1    1    1    2    0  502 -0.31581260901E+02 -0.10129412028E+02 -0.21570018985E+03  0.21823508638E+03  0.00000000000E+00 0. -1.
<mgrwt>
<rscale>  1 0.30000000E+03</rscale>
<asrwt>0</asrwt>
<pdfrwt beam="1">  1       21 0.59055439E-02 0.30000000E+03</pdfrwt>
<pdfrwt beam="2">0</pdfrwt>
<totfact> 0.21656104E+04</totfact>
</mgrwt>
</event>
<event>
 6    1  0.1273846E-001  0.3000000E+03  0.7818608E-02  0.1093470E+00
         21   -1    0    0  501  502  0.00000000000E+00  0.00000000000E+00  0.91453663767E+00  0.91453663767E+00  0.00000000000E+00 0. -1.
         13   -1    0    0    0    0 -0.00000000000E+00 -0.00000000000E+00 -0.10000000000E+04  0.10000000000E+04  0.00000000000E+00 0.  1.
    9000005    2    1    2  501    0 -0.90004328885E+01  0.28713047696E+02 -0.53457823083E+03  0.53543369280E+03  0.31476361756E+01 0.  0.
         13    1    3    3    0    0 -0.40142507130E+01  0.80207003800E+01 -0.16051911133E+03  0.16076949632E+03  0.00000000000E+00 0.  1.
          1    1    3    3  501    0 -0.49861821754E+01  0.20692347316E+02 -0.37405911949E+03  0.37466419648E+03  0.00000000000E+00 0.  1.
         -1    1    1    2    0  502  0.90004328885E+01 -0.28713047696E+02 -0.46450723254E+03  0.46548084384E+03  0.00000000000E+00 0. -1.
<mgrwt>
<rscale>  1 0.30000000E+03</rscale>
<asrwt>0</asrwt>
<pdfrwt beam="1">  1       21 0.33255948E-02 0.30000000E+03</pdfrwt>
<pdfrwt beam="2">0</pdfrwt>
<totfact> 0.57310000E+04</totfact>
</mgrwt>
</event>
<event>
 6    1  0.1273846E-001  0.3000000E+03  0.7818608E-02  0.1093470E+00
         21   -1    0    0  501  502  0.00000000000E+00  0.00000000000E+00  0.29172839433E+01  0.29172839433E+01  0.00000000000E+00 0. -1.
         13   -1    0    0    0    0 -0.00000000000E+00 -0.00000000000E+00 -0.10000000000E+04  0.10000000000E+04  0.00000000000E+00 0.  1.
    9000005    2    1    2  501    0  0.36396811310E+02 -0.19418518044E+02 -0.82177345046E+03  0.82281968451E+03  0.43385048646E+01 0.  0.
         13    1    3    3    0    0  0.21066513979E+02 -0.11958815854E+02 -0.52207404402E+03  0.52263574192E+03  0.00000000000E+00 0.  1.
          3    1    3    3  501    0  0.15330297332E+02 -0.74597021898E+01 -0.29969940643E+03  0.30018394259E+03  0.00000000000E+00 0.  1.
         -1    1    1    2    0  502 -0.36396811310E+02  0.19418518044E+02 -0.17530926560E+03  0.18009759943E+03  0.00000000000E+00 0. -1.
<mgrwt>
<rscale>  1 0.30000000E+03</rscale>
<asrwt>0</asrwt>
<pdfrwt beam="1">  1       21 0.10608328E-01 0.30000000E+03</pdfrwt>
<pdfrwt beam="2">0</pdfrwt>
<totfact> 0.77400867E+03</totfact>
</mgrwt>
</event>
<event>
 6    1  0.1273846E-001  0.3000000E+03  0.7818608E-02  0.1093470E+00
         21   -1    0    0  501  502  0.00000000000E+00  0.00000000000E+00  0.15776283404E+01  0.15776283404E+01  0.00000000000E+00 0. -1.
         13   -1    0    0    0    0 -0.00000000000E+00 -0.00000000000E+00 -0.10000000000E+04  0.10000000000E+04  0.00000000000E+00 0.  1.
    9000005    2    1    2  501    0 -0.17087373162E+02 -0.24807961917E+02 -0.82503024807E+03  0.82558830531E+03  0.37049084175E+01 0.  0.
         13    1    3    3    0    0 -0.78376885029E+01 -0.14150772340E+02 -0.41410150828E+03  0.41441734143E+03  0.00000000000E+00 0.  1.
          3    1    3    3  501    0 -0.92496846587E+01 -0.10657189577E+02 -0.41092873979E+03  0.41117096388E+03  0.00000000000E+00 0.  1.
         -1    1    1    2    0  502  0.17087373162E+02  0.24807961917E+02 -0.17339212359E+03  0.17598932303E+03  0.00000000000E+00 0. -1.
<mgrwt>
<rscale>  1 0.30000000E+03</rscale>
<asrwt>0</asrwt>
<pdfrwt beam="1">  1       21 0.57368424E-02 0.30000000E+03</pdfrwt>
<pdfrwt beam="2">0</pdfrwt>
<totfact> 0.22764589E+04</totfact>
</mgrwt>
</event>
<event>
 6    1  0.1273846E-001  0.3000000E+03  0.7818608E-02  0.1093470E+00
         21   -1    0    0  501  502  0.00000000000E+00  0.00000000000E+00  0.64180676452E+01  0.64180676452E+01  0.00000000000E+00 0. -1.
         13   -1    0    0    0    0 -0.00000000000E+00 -0.00000000000E+00 -0.10000000000E+04  0.10000000000E+04  0.00000000000E+00 0.  1.
    9000005    2    1    2  501    0  0.26171370673E+02 -0.37195968593E+02 -0.91100128651E+03  0.91214164540E+03  0.32490821189E+01 0.  0.
         13    1    3    3    0    0  0.23602700026E+02 -0.34068043936E+02 -0.81067014110E+03  0.81172889362E+03  0.00000000000E+00 0.  1.
          1    1    3    3  501    0  0.25686706470E+01 -0.31279246568E+01 -0.10033114540E+03  0.10041275178E+03  0.00000000000E+00 0.  1.
         -1    1    1    2    0  502 -0.26171370673E+02  0.37195968593E+02 -0.82580645845E+02  0.94276422242E+02  0.00000000000E+00 0. -1.
<mgrwt>
<rscale>  1 0.30000000E+03</rscale>
<asrwt>0</asrwt>
<pdfrwt beam="1">  1       21 0.23338477E-01 0.30000000E+03</pdfrwt>
<pdfrwt beam="2">0</pdfrwt>
<totfact> 0.17831089E+03</totfact>
</mgrwt>
</event>
<event>
 6    1  0.1273846E-001  0.3000000E+03  0.7818608E-02  0.1093470E+00
         21   -1    0    0  501  502  0.00000000000E+00  0.00000000000E+00  0.12657682885E+01  0.12657682885E+01  0.00000000000E+00 0. -1.
         13   -1    0    0    0    0 -0.00000000000E+00 -0.00000000000E+00 -0.10000000000E+04  0.10000000000E+04  0.00000000000E+00 0.  1.
    9000005    2    1    2  501    0 -0.32984102037E+02  0.60993785798E+01 -0.33807957843E+03  0.33976011879E+03  0.37394608613E+01 0.  0.
         13    1    3    3    0    0 -0.75501431589E+01  0.19852769754E+01 -0.64753113729E+02  0.65222018705E+02  0.00000000000E+00 0.  1.
          1    1    3    3  501    0 -0.25433958878E+02  0.41141016044E+01 -0.27332646470E+03  0.27453810009E+03  0.00000000000E+00 0.  1.
         -3    1    1    2    0  502  0.32984102037E+02 -0.60993785798E+01 -0.66065465328E+03  0.66150564949E+03  0.00000000000E+00 0. -1.
<mgrwt>
<rscale>  1 0.30000000E+03</rscale>
<asrwt>0</asrwt>
<pdfrwt beam="1">  1       21 0.46028035E-02 0.30000000E+03</pdfrwt>
<pdfrwt beam="2">0</pdfrwt>
<totfact> 0.33161440E+04</totfact>
</mgrwt>
</event>
<event>
 6    1  0.1273846E-001  0.3000000E+03  0.7818608E-02  0.1093470E+00
         21   -1    0    0  501  502  0.00000000000E+00  0.00000000000E+00  0.11372727969E+01  0.11372727969E+01  0.00000000000E+00 0. -1.
         13   -1    0    0    0    0 -0.00000000000E+00 -0.00000000000E+00 -0.10000000000E+04  0.10000000000E+04  0.00000000000E+00 0.  1.
    9000005    2    1    2  501    0  0.14767116082E+01 -0.32605352297E+02 -0.62045738111E+03  0.62132693115E+03  0.38084004486E+01 0.  0.
         13    1    3    3    0    0  0.26088304946E+01 -0.22080923993E+02 -0.40564380034E+03  0.40625271194E+03  0.00000000000E+00 0.  1.
          1    1    3    3  501    0 -0.11321188864E+01 -0.10524428304E+02 -0.21481358078E+03  0.21507421921E+03  0.00000000000E+00 0.  1.
         -1    1    1    2    0  502 -0.14767116082E+01  0.32605352297E+02 -0.37840534609E+03  0.37981034165E+03  0.00000000000E+00 0. -1.
<mgrwt>
<rscale>  1 0.30000000E+03</rscale>
<asrwt>0</asrwt>
<pdfrwt beam="1">  1       21 0.41355462E-02 0.30000000E+03</pdfrwt>
<pdfrwt beam="2">0</pdfrwt>
<totfact> 0.39750635E+04</totfact>
</mgrwt>
</event>
<event>
 6    1  0.1273846E-001  0.3000000E+03  0.7818608E-02  0.1093470E+00
         21   -1    0    0  501  502  0.00000000000E+00  0.00000000000E+00  0.22111800674E+01  0.22111800674E+01  0.00000000000E+00 0. -1.
         13   -1    0    0    0    0 -0.00000000000E+00 -0.00000000000E+00 -0.10000000000E+04  0.10000000000E+04  0.00000000000E+00 0.  1.
    9000005    2    1    2  501    0  0.37411568625E+02 -0.26946254842E+02 -0.42280101343E+03  0.42537783867E+03  0.77383822645E+01 0.  0.
         13    1    3    3    0    0  0.26019627204E+02 -0.21624572089E+02 -0.32976937053E+03  0.33150034821E+03  0.00000000000E+00 0.  1.
          3    1    3    3  501    0  0.11391941421E+02 -0.53216827538E+01 -0.93031642896E+02  0.93877490469E+02  0.00000000000E+00 0.  1.
         -1    1    1    2    0  502 -0.37411568625E+02  0.26946254842E+02 -0.57498780650E+03  0.57683334139E+03  0.00000000000E+00 0. -1.
<mgrwt>
<rscale>  1 0.30000000E+03</rscale>
<asrwt>0</asrwt>
<pdfrwt beam="1">  1       21 0.80406717E-02 0.30000000E+03</pdfrwt>
<pdfrwt beam="2">0</pdfrwt>
<totfact> 0.12660579E+04</totfact>
</mgrwt>
</event>
<event>
 6    1  0.1273846E-001  0.3000000E+03  0.7818608E-02  0.1093470E+00
         21   -1    0    0  501  502  0.00000000000E+00  0.00000000000E+00  0.23220838034E+01  0.23220838034E+01  0.00000000000E+00 0. -1.
         13   -1    0    0    0    0 -0.00000000000E+00 -0.00000000000E+00 -0.10000000000E+04  0.10000000000E+04  0.00000000000E+00 0.  1.
    9000005    2    1    2  501    0 -0.31437458154E+02  0.34175079301E+02 -0.63084122560E+03  0.63255809504E+03  0.35835541225E+01 0.  0.
         13    1    3    3    0    0 -0.10801760786E+02  0.12861511648E+02 -0.20746000048E+03  0.20813877178E+03  0.00000000000E+00 0.  1.
          1    1    3    3  501    0 -0.20635697368E+02  0.21313567653E+02 -0.42338122512E+03  0.42441932326E+03  0.00000000000E+00 0.  1.
         -1    1    1    2    0  502  0.31437458154E+02 -0.34175079301E+02 -0.36683669059E+03  0.36976398876E+03  0.00000000000E+00 0. -1.
<mgrwt>
<rscale>  1 0.30000000E+03</rscale>
<asrwt>0</asrwt>
<pdfrwt beam="1">  1       21 0.84439589E-02 0.30000000E+03</pdfrwt>
<pdfrwt beam="2">0</pdfrwt>
<totfact> 0.11615937E+04</totfact>
</mgrwt>
</event>
<event>
 6    1  0.1273846E-001  0.3000000E+03  0.7818608E-02  0.1093470E+00
         21   -1    0    0  501  502  0.00000000000E+00  0.00000000000E+00  0.16787157671E+01  0.16787157671E+01  0.00000000000E+00 0. -1.
         13   -1    0    0    0    0 -0.00000000000E+00 -0.00000000000E+00 -0.10000000000E+04  0.10000000000E+04  0.00000000000E+00 0.  1.
    9000005    2    1    2  501    0 -0.13016710976E+02  0.36381104690E+02 -0.33603162400E+03  0.33826284801E+03  0.33885795462E+01 0.  0.
         13    1    3    3    0    0 -0.26144962350E+01  0.40871469162E+01 -0.44384961749E+02  0.44649358226E+02  0.00000000000E+00 0.  1.
          1    1    3    3  501    0 -0.10402214741E+02  0.32293957773E+02 -0.29164666225E+03  0.29361348978E+03  0.00000000000E+00 0.  1.
         -3    1    1    2    0  502  0.13016710976E+02 -0.36381104690E+02 -0.66228966023E+03  0.66341586776E+03  0.00000000000E+00 0. -1.
<mgrwt>
<rscale>  1 0.30000000E+03</rscale>
<asrwt>0</asrwt>
<pdfrwt beam="1">  1       21 0.61044338E-02 0.30000000E+03</pdfrwt>
<pdfrwt beam="2">0</pdfrwt>
<totfact> 0.20453593E+04</totfact>
</mgrwt>
</event>
<event>
 6    1  0.1273846E-001  0.3000000E+03  0.7818608E-02  0.1093470E+00
         21   -1    0    0  501  502  0.00000000000E+00  0.00000000000E+00  0.15136529390E+01  0.15136529390E+01  0.00000000000E+00 0. -1.
         13   -1    0    0    0    0 -0.00000000000E+00 -0.00000000000E+00 -0.10000000000E+04  0.10000000000E+04  0.00000000000E+00 0.  1.
    9000005    2    1    2  501    0  0.27966495503E+02 -0.19738765839E+02 -0.73619422774E+03  0.73699730258E+03  0.33673891794E+01 0.  0.
         13    1    3    3    0    0  0.83599300725E+01 -0.76953265438E+01 -0.25632958221E+03  0.25658129549E+03  0.00000000000E+00 0.  1.
          3    1    3    3  501    0  0.19606565431E+02 -0.12043439295E+02 -0.47986464554E+03  0.48041600709E+03  0.00000000000E+00 0.  1.
         -3    1    1    2    0  502 -0.27966495503E+02  0.19738765839E+02 -0.26229211932E+03  0.26451635035E+03  0.00000000000E+00 0. -1.
<mgrwt>
<rscale>  1 0.30000000E+03</rscale>
<asrwt>0</asrwt>
<pdfrwt beam="1">  1       21 0.55042041E-02 0.30000000E+03</pdfrwt>
<pdfrwt beam="2">0</pdfrwt>
<totfact> 0.24442104E+04</totfact>
</mgrwt>
</event>
<event>
 6    1  0.1273846E-001  0.3000000E+03  0.7818608E-02  0.1093470E+00
         21   -1    0    0  501  502  0.00000000000E+00  0.00000000000E+00  0.33778774700E+01  0.33778774700E+01  0.00000000000E+00 0. -1.
         13   -1    0    0    0    0 -0.00000000000E+00 -0.00000000000E+00 -0.10000000000E+04  0.10000000000E+04  0.00000000000E+00 0.  1.
    9000005    2    1    2  501    0  0.48101926365E+02 -0.14856604103E+02 -0.74862880314E+03  0.75032610319E+03  0.31084124356E+01 0.  0.
         13    1    3    3    0    0  0.39557187440E+02 -0.10963085709E+02 -0.60694469238E+03  0.60833117620E+03  0.00000000000E+00 0.  1.
          1    1    3    3  501    0  0.85447389251E+01 -0.38935183942E+01 -0.14168411076E+03  0.14199492698E+03  0.00000000000E+00 0.  1.
         -3    1    1    2    0  502 -0.48101926365E+02  0.14856604103E+02 -0.24799331939E+03  0.25305177428E+03  0.00000000000E+00 0. -1.
<mgrwt>
<rscale>  1 0.30000000E+03</rscale>
<asrwt>0</asrwt>
<pdfrwt beam="1">  1       21 0.12283217E-01 0.30000000E+03</pdfrwt>
<pdfrwt beam="2">0</pdfrwt>
<totfact> 0.59398858E+03</totfact>
</mgrwt>
</event>
<event>
 6    1  0.1273846E-001  0.3000000E+03  0.7818608E-02  0.1093470E+00
         21   -1    0    0  501  502  0.00000000000E+00  0.00000000000E+00  0.15259915680E+01  0.15259915680E+01  0.00000000000E+00 0. -1.
         13   -1    0    0    0    0 -0.00000000000E+00 -0.00000000000E+00 -0.10000000000E+04  0.10000000000E+04  0.00000000000E+00 0.  1.
    9000005    2    1    2  501    0 -0.37996410633E+02  0.86648560588E+01 -0.48056923708E+03  0.48215699062E+03  0.31249046931E+01 0.  0.
         13    1    3    3    0    0 -0.25134390417E+02  0.65219738113E+01 -0.30404750518E+03  0.30515432019E+03  0.00000000000E+00 0.  1.
          1    1    3    3  501    0 -0.12862020216E+02  0.21428822475E+01 -0.17652173190E+03  0.17700267043E+03  0.00000000000E+00 0.  1.
         -3    1    1    2    0  502  0.37996410633E+02 -0.86648560588E+01 -0.51790477136E+03  0.51936900095E+03  0.00000000000E+00 0. -1.
<mgrwt>
<rscale>  1 0.30000000E+03</rscale>
<asrwt>0</asrwt>
<pdfrwt beam="1">  1       21 0.55490719E-02 0.30000000E+03</pdfrwt>
<pdfrwt beam="2">0</pdfrwt>
<totfact> 0.24104091E+04</totfact>
</mgrwt>
</event>
<event>
 6    1  0.1273846E-001  0.3000000E+03  0.7818608E-02  0.1093470E+00
         21   -1    0    0  501  502  0.00000000000E+00  0.00000000000E+00  0.36895967930E+01  0.36895967930E+01  0.00000000000E+00 0. -1.
         13   -1    0    0    0    0 -0.00000000000E+00 -0.00000000000E+00 -0.10000000000E+04  0.10000000000E+04  0.00000000000E+00 0.  1.
    9000005    2    1    2  501    0 -0.38034273682E+02 -0.24816500151E+02 -0.83117922153E+03  0.83242730725E+03  0.37227562101E+01 0.  0.
         13    1    3    3    0    0 -0.21235023944E+02 -0.16043971124E+02 -0.48401303546E+03  0.48474421476E+03  0.00000000000E+00 0.  1.
          3    1    3    3  501    0 -0.16799249738E+02 -0.87725290271E+01 -0.34716618607E+03  0.34768309250E+03  0.00000000000E+00 0.  1.
         -1    1    1    2    0  502  0.38034273682E+02  0.24816500151E+02 -0.16513118168E+03  0.17126228954E+03  0.00000000000E+00 0. -1.
<mgrwt>
<rscale>  1 0.30000000E+03</rscale>
<asrwt>0</asrwt>
<pdfrwt beam="1">  1       21 0.13416744E-01 0.30000000E+03</pdfrwt>
<pdfrwt beam="2">0</pdfrwt>
<totfact> 0.50562499E+03</totfact>
</mgrwt>
</event>
<event>
 6    1  0.1273846E-001  0.3000000E+03  0.7818608E-02  0.1093470E+00
         21   -1    0    0  501  502  0.00000000000E+00  0.00000000000E+00  0.15513681769E+01  0.15513681769E+01  0.00000000000E+00 0. -1.
         13   -1    0    0    0    0 -0.00000000000E+00 -0.00000000000E+00 -0.10000000000E+04  0.10000000000E+04  0.00000000000E+00 0.  1.
    9000005    2    1    2  501    0 -0.20022619569E+02  0.22794860587E+02 -0.81824540073E+03  0.81881189390E+03  0.26212226926E+01 0.  0.
         13    1    3    3    0    0 -0.70067984810E+01  0.66698969413E+01 -0.23772776541E+03  0.23792451155E+03  0.00000000000E+00 0.  1.
          1    1    3    3  501    0 -0.13015821088E+02  0.16124963645E+02 -0.58051763532E+03  0.58088738235E+03  0.00000000000E+00 0.  1.
         -1    1    1    2    0  502  0.20022619569E+02 -0.22794860587E+02 -0.18020323109E+03  0.18273947428E+03  0.00000000000E+00 0. -1.
<mgrwt>
<rscale>  1 0.30000000E+03</rscale>
<asrwt>0</asrwt>
<pdfrwt beam="1">  1       21 0.56413507E-02 0.30000000E+03</pdfrwt>
<pdfrwt beam="2">0</pdfrwt>
<totfact> 0.23431110E+04</totfact>
</mgrwt>
</event>
<event>
 6    1  0.1273846E-001  0.3000000E+03  0.7818608E-02  0.1093470E+00
         21   -1    0    0  501  502  0.00000000000E+00  0.00000000000E+00  0.16341275686E+01  0.16341275686E+01  0.00000000000E+00 0. -1.
         13   -1    0    0    0    0 -0.00000000000E+00 -0.00000000000E+00 -0.10000000000E+04  0.10000000000E+04  0.00000000000E+00 0.  1.
    9000005    2    1    2  501    0 -0.17441224485E+02  0.29710437352E+02 -0.75993448406E+03  0.76072660722E+03  0.42005322952E+01 0.  0.
         13    1    3    3    0    0 -0.15348604572E+01  0.56818661166E+01 -0.12424620434E+03  0.12438552445E+03  0.00000000000E+00 0.  1.
          1    1    3    3  501    0 -0.15906364028E+02  0.24028571235E+02 -0.63568827972E+03  0.63634108277E+03  0.00000000000E+00 0.  1.
         -3    1    1    2    0  502  0.17441224485E+02 -0.29710437352E+02 -0.23843138838E+03  0.24090752035E+03  0.00000000000E+00 0. -1.
<mgrwt>
<rscale>  1 0.30000000E+03</rscale>
<asrwt>0</asrwt>
<pdfrwt beam="1">  1       21 0.59422946E-02 0.30000000E+03</pdfrwt>
<pdfrwt beam="2">0</pdfrwt>
<totfact> 0.21425745E+04</totfact>
</mgrwt>
</event>
<event>
 6    1  0.1273846E-001  0.3000000E+03  0.7818608E-02  0.1093470E+00
         21   -1    0    0  501  502  0.00000000000E+00  0.00000000000E+00  0.11453915729E+01  0.11453915729E+01  0.00000000000E+00 0. -1.
         13   -1    0    0    0    0 -0.00000000000E+00 -0.00000000000E+00 -0.10000000000E+04  0.10000000000E+04  0.00000000000E+00 0.  1.
    9000005    2    1    2  501    0  0.30809641480E+02 -0.59346011002E+01 -0.68452224706E+03  0.68525096791E+03  0.37052400900E+01 0.  0.
         13    1    3    3    0    0  0.13519598777E+02 -0.85391029866E+00 -0.30769471902E+03  0.30799277399E+03  0.00000000000E+00 0.  1.
          1    1    3    3  501    0  0.17290042703E+02 -0.50806908015E+01 -0.37682752804E+03  0.37725819393E+03  0.00000000000E+00 0.  1.
         -1    1    1    2    0  502 -0.30809641480E+02  0.59346011002E+01 -0.31433236136E+03  0.31589442366E+03  0.00000000000E+00 0. -1.
<mgrwt>
<rscale>  1 0.30000000E+03</rscale>
<asrwt>0</asrwt>
<pdfrwt beam="1">  1       21 0.41650690E-02 0.30000000E+03</pdfrwt>
<pdfrwt beam="2">0</pdfrwt>
<totfact> 0.39276343E+04</totfact>
</mgrwt>
</event>
<event>
 6    1  0.1273846E-001  0.3000000E+03  0.7818608E-02  0.1093470E+00
         21   -1    0    0  501  502  0.00000000000E+00  0.00000000000E+00  0.14452342573E+01  0.14452342573E+01  0.00000000000E+00 0. -1.
         13   -1    0    0    0    0 -0.00000000000E+00 -0.00000000000E+00 -0.10000000000E+04  0.10000000000E+04  0.00000000000E+00 0.  1.
    9000005    2    1    2  501    0  0.26392117654E+02 -0.26989196843E+02 -0.54762742930E+03  0.54894062282E+03  0.38788451983E+01 0.  0.
         13    1    3    3    0    0  0.11276473566E+02 -0.90266123899E+01 -0.21870086825E+03  0.21917734454E+03  0.00000000000E+00 0.  1.
          1    1    3    3  501    0  0.15115644089E+02 -0.17962584453E+02 -0.32892656104E+03  0.32976327827E+03  0.00000000000E+00 0.  1.
         -3    1    1    2    0  502 -0.26392117654E+02  0.26989196843E+02 -0.45092733645E+03  0.45250461144E+03  0.00000000000E+00 0. -1.
<mgrwt>
<rscale>  1 0.30000000E+03</rscale>
<asrwt>0</asrwt>
<pdfrwt beam="1">  1       21 0.52554084E-02 0.30000000E+03</pdfrwt>
<pdfrwt beam="2">0</pdfrwt>
<totfact> 0.26456327E+04</totfact>
</mgrwt>
</event>
<event>
 6    1  0.1273846E-001  0.3000000E+03  0.7818608E-02  0.1093470E+00
         21   -1    0    0  501  502  0.00000000000E+00  0.00000000000E+00  0.48491779331E+01  0.48491779331E+01  0.00000000000E+00 0. -1.
         13   -1    0    0    0    0 -0.00000000000E+00 -0.00000000000E+00 -0.10000000000E+04  0.10000000000E+04  0.00000000000E+00 0.  1.
    9000005    2    1    2  501    0 -0.11802340217E+02  0.61063378356E+02 -0.72320559262E+03  0.72588280141E+03  0.33883294929E+01 0.  0.
         13    1    3    3    0    0 -0.10538716424E+02  0.47067359616E+02 -0.55989908400E+03  0.56197276193E+03  0.00000000000E+00 0.  1.
          1    1    3    3  501    0 -0.12636237932E+01  0.13996018740E+02 -0.16330650862E+03  0.16391003948E+03  0.00000000000E+00 0.  1.
         -1    1    1    2    0  502  0.11802340217E+02 -0.61063378356E+02 -0.27194522945E+03  0.27896637652E+03  0.00000000000E+00 0. -1.
<mgrwt>
<rscale>  1 0.30000000E+03</rscale>
<asrwt>0</asrwt>
<pdfrwt beam="1">  1       21 0.17633411E-01 0.30000000E+03</pdfrwt>
<pdfrwt beam="2">0</pdfrwt>
<totfact> 0.30451845E+03</totfact>
</mgrwt>
</event>
<event>
 6    1  0.1273846E-001  0.3000000E+03  0.7818608E-02  0.1093470E+00
         21   -1    0    0  501  502  0.00000000000E+00  0.00000000000E+00  0.16624038880E+01  0.16624038880E+01  0.00000000000E+00 0. -1.
         13   -1    0    0    0    0 -0.00000000000E+00 -0.00000000000E+00 -0.10000000000E+04  0.10000000000E+04  0.00000000000E+00 0.  1.
    9000005    2    1    2  501    0  0.14137596739E+02 -0.28022686617E+02 -0.81833006682E+03  0.81893897023E+03  0.34345435110E+01 0.  0.
         13    1    3    3    0    0  0.36129131905E+01 -0.89831779646E+01 -0.28861343271E+03  0.28877580261E+03  0.00000000000E+00 0.  1.
          3    1    3    3  501    0  0.10524683549E+02 -0.19039508652E+02 -0.52971663411E+03  0.53016316762E+03  0.00000000000E+00 0.  1.
         -3    1    1    2    0  502 -0.14137596739E+02  0.28022686617E+02 -0.18000752929E+03  0.18272343366E+03  0.00000000000E+00 0. -1.
<mgrwt>
<rscale>  1 0.30000000E+03</rscale>
<asrwt>0</asrwt>
<pdfrwt beam="1">  1       21 0.60451178E-02 0.30000000E+03</pdfrwt>
<pdfrwt beam="2">0</pdfrwt>
<totfact> 0.20801127E+04</totfact>
</mgrwt>
</event>
<event>
 6    1  0.1273846E-001  0.3000000E+03  0.7818608E-02  0.1093470E+00
         21   -1    0    0  501  502  0.00000000000E+00  0.00000000000E+00  0.12973912188E+01  0.12973912188E+01  0.00000000000E+00 0. -1.
         13   -1    0    0    0    0 -0.00000000000E+00 -0.00000000000E+00 -0.10000000000E+04  0.10000000000E+04  0.00000000000E+00 0.  1.
    9000005    2    1    2  501    0 -0.34734805449E+02  0.63757011233E+01 -0.59327871946E+03  0.59433831919E+03  0.33529716598E+01 0.  0.
         13    1    3    3    0    0 -0.21015629856E+02  0.43013680435E+01 -0.33328258290E+03  0.33397221221E+03  0.00000000000E+00 0.  1.
          1    1    3    3  501    0 -0.13719175593E+02  0.20743330799E+01 -0.25999613656E+03  0.26036610698E+03  0.00000000000E+00 0.  1.
         -1    1    1    2    0  502  0.34734805449E+02 -0.63757011233E+01 -0.40542388932E+03  0.40695907203E+03  0.00000000000E+00 0. -1.
<mgrwt>
<rscale>  1 0.30000000E+03</rscale>
<asrwt>0</asrwt>
<pdfrwt beam="1">  1       21 0.47177962E-02 0.30000000E+03</pdfrwt>
<pdfrwt beam="2">0</pdfrwt>
<totfact> 0.31799330E+04</totfact>
</mgrwt>
</event>
<event>
 6    1  0.1273846E-001  0.3000000E+03  0.7818608E-02  0.1093470E+00
         21   -1    0    0  501  502  0.00000000000E+00  0.00000000000E+00  0.30185322090E+01  0.30185322090E+01  0.00000000000E+00 0. -1.
         13   -1    0    0    0    0 -0.00000000000E+00 -0.00000000000E+00 -0.10000000000E+04  0.10000000000E+04  0.00000000000E+00 0.  1.
    9000005    2    1    2  501    0 -0.46180434362E+01  0.33459842562E+02 -0.89390924684E+03  0.89455300717E+03  0.32332132624E+01 0.  0.
         13    1    3    3    0    0 -0.95264901876E+00  0.14987755564E+02 -0.42755766894E+03  0.42782134195E+03  0.00000000000E+00 0.  1.
          3    1    3    3  501    0 -0.36653944175E+01  0.18472086997E+02 -0.46635157789E+03  0.46673166522E+03  0.00000000000E+00 0.  1.
         -3    1    1    2    0  502  0.46180434362E+01 -0.33459842562E+02 -0.10307222095E+03  0.10846552504E+03  0.00000000000E+00 0. -1.
<mgrwt>
<rscale>  1 0.30000000E+03</rscale>
<asrwt>0</asrwt>
<pdfrwt beam="1">  1       21 0.10976504E-01 0.30000000E+03</pdfrwt>
<pdfrwt beam="2">0</pdfrwt>
<totfact> 0.72799730E+03</totfact>
</mgrwt>
</event>
<event>
 6    1  0.1273846E-001  0.3000000E+03  0.7818608E-02  0.1093470E+00
         21   -1    0    0  501  502  0.00000000000E+00  0.00000000000E+00  0.42784264331E+01  0.42784264331E+01  0.00000000000E+00 0. -1.
         13   -1    0    0    0    0 -0.00000000000E+00 -0.00000000000E+00 -0.10000000000E+04  0.10000000000E+04  0.00000000000E+00 0.  1.
    9000005    2    1    2  501    0  0.36471196335E+01  0.47068460673E+02 -0.84525910470E+03  0.84658348038E+03  0.34487258964E+01 0.  0.
         13    1    3    3    0    0  0.23065375344E+01  0.17441664524E+02 -0.29063512369E+03  0.29116714599E+03  0.00000000000E+00 0.  1.
          3    1    3    3  501    0  0.13405820991E+01  0.29626796148E+02 -0.55462398100E+03  0.55541633440E+03  0.00000000000E+00 0.  1.
         -1    1    1    2    0  502 -0.36471196335E+01 -0.47068460673E+02 -0.15046246887E+03  0.15769494605E+03  0.00000000000E+00 0. -1.
<mgrwt>
<rscale>  1 0.30000000E+03</rscale>
<asrwt>0</asrwt>
<pdfrwt beam="1">  1       21 0.15557947E-01 0.30000000E+03</pdfrwt>
<pdfrwt beam="2">0</pdfrwt>
<totfact> 0.38482750E+03</totfact>
</mgrwt>
</event>
<event>
 6    1  0.1273846E-001  0.3000000E+03  0.7818608E-02  0.1093470E+00
         21   -1    0    0  501  502  0.00000000000E+00  0.00000000000E+00  0.20778143053E+01  0.20778143053E+01  0.00000000000E+00 0. -1.
         13   -1    0    0    0    0 -0.00000000000E+00 -0.00000000000E+00 -0.10000000000E+04  0.10000000000E+04  0.00000000000E+00 0.  1.
    9000005    2    1    2  501    0 -0.43814842075E+02 -0.74589260855E+01 -0.60583970912E+03  0.60748429636E+03  0.44767418717E+01 0.  0.
         13    1    3    3    0    0 -0.33460142545E+02 -0.43569486150E+01 -0.43908164030E+03  0.44037626070E+03  0.00000000000E+00 0.  1.
          3    1    3    3  501    0 -0.10354699529E+02 -0.31019774705E+01 -0.16675806882E+03  0.16710803566E+03  0.00000000000E+00 0.  1.
         -3    1    1    2    0  502  0.43814842075E+02  0.74589260855E+01 -0.39208247657E+03  0.39459351794E+03  0.00000000000E+00 0. -1.
<mgrwt>
<rscale>  1 0.30000000E+03</rscale>
<asrwt>0</asrwt>
<pdfrwt beam="1">  1       21 0.75557043E-02 0.30000000E+03</pdfrwt>
<pdfrwt beam="2">0</pdfrwt>
<totfact> 0.14120300E+04</totfact>
</mgrwt>
</event>
<event>
 6    1  0.1273846E-001  0.3000000E+03  0.7818608E-02  0.1093470E+00
         21   -1    0    0  501  502  0.00000000000E+00  0.00000000000E+00  0.15147709762E+01  0.15147709762E+01  0.00000000000E+00 0. -1.
         13   -1    0    0    0    0 -0.00000000000E+00 -0.00000000000E+00 -0.10000000000E+04  0.10000000000E+04  0.00000000000E+00 0.  1.
    9000005    2    1    2  501    0  0.25663159230E+02 -0.22653746429E+02 -0.73670839185E+03  0.73750927397E+03  0.29807046281E+01 0.  0.
         13    1    3    3    0    0  0.95910803961E+01 -0.74232443543E+01 -0.23570346478E+03  0.23601528910E+03  0.00000000000E+00 0.  1.
          1    1    3    3  501    0  0.16072078834E+02 -0.15230502075E+02 -0.50100492706E+03  0.50149398486E+03  0.00000000000E+00 0.  1.
         -3    1    1    2    0  502 -0.25663159230E+02  0.22653746429E+02 -0.26177683718E+03  0.26400549701E+03  0.00000000000E+00 0. -1.
<mgrwt>
<rscale>  1 0.30000000E+03</rscale>
<asrwt>0</asrwt>
<pdfrwt beam="1">  1       21 0.55082697E-02 0.30000000E+03</pdfrwt>
<pdfrwt beam="2">0</pdfrwt>
<totfact> 0.24411176E+04</totfact>
</mgrwt>
</event>
<event>
 6    1  0.1273846E-001  0.3000000E+03  0.7818608E-02  0.1093470E+00
         21   -1    0    0  501  502  0.00000000000E+00  0.00000000000E+00  0.99550056850E+01  0.99550056850E+01  0.00000000000E+00 0. -1.
         13   -1    0    0    0    0 -0.00000000000E+00 -0.00000000000E+00 -0.10000000000E+04  0.10000000000E+04  0.00000000000E+00 0.  1.
    9000005    2    1    2  501    0 -0.39970657529E+02 -0.92357814083E+01 -0.95531429229E+03  0.95620396119E+03  0.42030005704E+01 0.  0.
         13    1    3    3    0    0 -0.31235965200E+02 -0.84818854653E+01 -0.77818671662E+03  0.77885954692E+03  0.00000000000E+00 0.  1.
          1    1    3    3  501    0 -0.87346923298E+01 -0.75389594293E+00 -0.17712757567E+03  0.17734441426E+03  0.00000000000E+00 0.  1.
         -1    1    1    2    0  502  0.39970657529E+02  0.92357814083E+01 -0.34730702025E+02  0.53751044499E+02  0.00000000000E+00 0. -1.
<mgrwt>
<rscale>  1 0.30000000E+03</rscale>
<asrwt>0</asrwt>
<pdfrwt beam="1">  1       21 0.36200097E-01 0.30000000E+03</pdfrwt>
<pdfrwt beam="2">0</pdfrwt>
<totfact> 0.74265702E+02</totfact>
</mgrwt>
</event>
<event>
 6    1  0.1273846E-001  0.3000000E+03  0.7818608E-02  0.1093470E+00
         21   -1    0    0  501  502  0.00000000000E+00  0.00000000000E+00  0.83183798317E+01  0.83183798317E+01  0.00000000000E+00 0. -1.
         13   -1    0    0    0    0 -0.00000000000E+00 -0.00000000000E+00 -0.10000000000E+04  0.10000000000E+04  0.00000000000E+00 0.  1.
    9000005    2    1    2  501    0 -0.74243514308E+02 -0.29969918841E+01 -0.78810648785E+03  0.79160678376E+03  0.28952569149E+01 0.  0.
         13    1    3    3    0    0 -0.57384979222E+02 -0.19079071741E+01 -0.62081812547E+03  0.62346757803E+03  0.00000000000E+00 0.  1.
          3    1    3    3  501    0 -0.16858535086E+02 -0.10890847100E+01 -0.16728836239E+03  0.16813920572E+03  0.00000000000E+00 0.  1.
         -3    1    1    2    0  502  0.74243514308E+02  0.29969918841E+01 -0.20357513231E+03  0.21671159608E+03  0.00000000000E+00 0. -1.
<mgrwt>
<rscale>  1 0.30000000E+03</rscale>
<asrwt>0</asrwt>
<pdfrwt beam="1">  1       21 0.30248718E-01 0.30000000E+03</pdfrwt>
<pdfrwt beam="2">0</pdfrwt>
<totfact> 0.10694582E+03</totfact>
</mgrwt>
</event>
<event>
 6    1  0.1273846E-001  0.3000000E+03  0.7818608E-02  0.1093470E+00
         21   -1    0    0  501  502  0.00000000000E+00  0.00000000000E+00  0.16907780526E+01  0.16907780526E+01  0.00000000000E+00 0. -1.
         13   -1    0    0    0    0 -0.00000000000E+00 -0.00000000000E+00 -0.10000000000E+04  0.10000000000E+04  0.00000000000E+00 0.  1.
    9000005    2    1    2  501    0  0.15612115406E+02 -0.35798175575E+02 -0.35190982064E+03  0.35411264877E+03  0.54771005202E+01 0.  0.
         13    1    3    3    0    0  0.12719401361E+02 -0.29796916109E+02 -0.30817766643E+03  0.30987596465E+03  0.00000000000E+00 0.  1.
          3    1    3    3  501    0  0.28927140450E+01 -0.60012594655E+01 -0.43732154209E+02  0.44236684115E+02  0.00000000000E+00 0.  1.
         -1    1    1    2    0  502 -0.15612115406E+02  0.35798175575E+02 -0.64639940130E+03  0.64757812928E+03  0.00000000000E+00 0. -1.
<mgrwt>
<rscale>  1 0.30000000E+03</rscale>
<asrwt>0</asrwt>
<pdfrwt beam="1">  1       21 0.61482968E-02 0.30000000E+03</pdfrwt>
<pdfrwt beam="2">0</pdfrwt>
<totfact> 0.20202368E+04</totfact>
</mgrwt>
</event>
<event>
 6    1  0.1273846E-001  0.3000000E+03  0.7818608E-02  0.1093470E+00
         21   -1    0    0  501  502  0.00000000000E+00  0.00000000000E+00  0.20269156442E+01  0.20269156442E+01  0.00000000000E+00 0. -1.
         13   -1    0    0    0    0 -0.00000000000E+00 -0.00000000000E+00 -0.10000000000E+04  0.10000000000E+04  0.00000000000E+00 0.  1.
    9000005    2    1    2  501    0  0.33589056617E+02 -0.27325872102E+02 -0.63469681808E+03  0.63617916910E+03  0.29927091681E+01 0.  0.
         13    1    3    3    0    0  0.12770041311E+02 -0.89777080372E+01 -0.21503896099E+03  0.21560479573E+03  0.00000000000E+00 0.  1.
          1    1    3    3  501    0  0.20819015306E+02 -0.18348164065E+02 -0.41965785708E+03  0.42057437337E+03  0.00000000000E+00 0.  1.
         -1    1    1    2    0  502 -0.33589056617E+02  0.27325872102E+02 -0.36327626628E+03  0.36584774655E+03  0.00000000000E+00 0. -1.
<mgrwt>
<rscale>  1 0.30000000E+03</rscale>
<asrwt>0</asrwt>
<pdfrwt beam="1">  1       21 0.73706179E-02 0.30000000E+03</pdfrwt>
<pdfrwt beam="2">0</pdfrwt>
<totfact> 0.14746729E+04</totfact>
</mgrwt>
</event>
<event>
 6    1  0.1273846E-001  0.3000000E+03  0.7818608E-02  0.1093470E+00
         21   -1    0    0  501  502  0.00000000000E+00  0.00000000000E+00  0.22114626033E+01  0.22114626033E+01  0.00000000000E+00 0. -1.
         13   -1    0    0    0    0 -0.00000000000E+00 -0.00000000000E+00 -0.10000000000E+04  0.10000000000E+04  0.00000000000E+00 0.  1.
    9000005    2    1    2  501    0  0.23303158956E+02 -0.36381378412E+02 -0.31067957824E+03  0.31374551307E+03  0.69140960353E+01 0.  0.
         13    1    3    3    0    0  0.13757593655E+02 -0.27339114980E+02 -0.21665644173E+03  0.21880747778E+03  0.00000000000E+00 0.  1.
          1    1    3    3  501    0  0.95455653014E+01 -0.90422634326E+01 -0.94023136509E+02  0.94938035286E+02  0.00000000000E+00 0.  1.
         -3    1    1    2    0  502 -0.23303158956E+02  0.36381378412E+02 -0.68710895916E+03  0.68846594953E+03  0.00000000000E+00 0. -1.
<mgrwt>
<rscale>  1 0.30000000E+03</rscale>
<asrwt>0</asrwt>
<pdfrwt beam="1">  1       21 0.80416992E-02 0.30000000E+03</pdfrwt>
<pdfrwt beam="2">0</pdfrwt>
<totfact> 0.12657737E+04</totfact>
</mgrwt>
</event>
<event>
 6    1  0.1273846E-001  0.3000000E+03  0.7818608E-02  0.1093470E+00
         21   -1    0    0  501  502  0.00000000000E+00  0.00000000000E+00  0.20826331424E+01  0.20826331424E+01  0.00000000000E+00 0. -1.
         13   -1    0    0    0    0 -0.00000000000E+00 -0.00000000000E+00 -0.10000000000E+04  0.10000000000E+04  0.00000000000E+00 0.  1.
    9000005    2    1    2  501    0  0.41993803818E+02  0.17704881753E+01 -0.69287292681E+03  0.69415614096E+03  0.36388364123E+01 0.  0.
         13    1    3    3    0    0  0.32833084362E+02 -0.11871920690E+00 -0.53677660332E+03  0.53777983171E+03  0.00000000000E+00 0.  1.
          1    1    3    3  501    0  0.91607194558E+01  0.18892073822E+01 -0.15609632349E+03  0.15637630924E+03  0.00000000000E+00 0.  1.
         -1    1    1    2    0  502 -0.41993803818E+02 -0.17704881753E+01 -0.30504444005E+03  0.30792649219E+03  0.00000000000E+00 0. -1.
<mgrwt>
<rscale>  1 0.30000000E+03</rscale>
<asrwt>0</asrwt>
<pdfrwt beam="1">  1       21 0.75732274E-02 0.30000000E+03</pdfrwt>
<pdfrwt beam="2">0</pdfrwt>
<totfact> 0.14063124E+04</totfact>
</mgrwt>
</event>
<event>
 6    1  0.1273846E-001  0.3000000E+03  0.7818608E-02  0.1093470E+00
         21   -1    0    0  501  502  0.00000000000E+00  0.00000000000E+00  0.11276734105E+01  0.11276734105E+01  0.00000000000E+00 0. -1.
         13   -1    0    0    0    0 -0.00000000000E+00 -0.00000000000E+00 -0.10000000000E+04  0.10000000000E+04  0.00000000000E+00 0.  1.
    9000005    2    1    2  501    0 -0.31923825178E+02  0.98657758301E+01 -0.53434291762E+03  0.53539809958E+03  0.35081721703E+01 0.  0.
         13    1    3    3    0    0 -0.96772118192E+01  0.45594668587E+01 -0.18081031454E+03  0.18112649450E+03  0.00000000000E+00 0.  1.
          3    1    3    3  501    0 -0.22246613358E+02  0.53063089714E+01 -0.35353260308E+03  0.35427160508E+03  0.00000000000E+00 0.  1.
         -1    1    1    2    0  502  0.31923825178E+02 -0.98657758301E+01 -0.46452940897E+03  0.46572957383E+03  0.00000000000E+00 0. -1.
<mgrwt>
<rscale>  1 0.30000000E+03</rscale>
<asrwt>0</asrwt>
<pdfrwt beam="1">  1       21 0.41006392E-02 0.30000000E+03</pdfrwt>
<pdfrwt beam="2">0</pdfrwt>
<totfact> 0.40323034E+04</totfact>
</mgrwt>
</event>
<event>
 6    1  0.1273846E-001  0.3000000E+03  0.7818608E-02  0.1093470E+00
         21   -1    0    0  501  502  0.00000000000E+00  0.00000000000E+00  0.21343095849E+01  0.21343095849E+01  0.00000000000E+00 0. -1.
         13   -1    0    0    0    0 -0.00000000000E+00 -0.00000000000E+00 -0.10000000000E+04  0.10000000000E+04  0.00000000000E+00 0.  1.
    9000005    2    1    2  501    0 -0.34374116805E+02 -0.29440349162E+02 -0.59708725414E+03  0.59880854913E+03  0.31898883191E+01 0.  0.
         13    1    3    3    0    0 -0.22741118356E+02 -0.21394015418E+02 -0.41419514706E+03  0.41537029529E+03  0.00000000000E+00 0.  1.
          3    1    3    3  501    0 -0.11632998449E+02 -0.80463337441E+01 -0.18289210708E+03  0.18343825384E+03  0.00000000000E+00 0.  1.
         -3    1    1    2    0  502  0.34374116805E+02  0.29440349162E+02 -0.40077843628E+03  0.40332576046E+03  0.00000000000E+00 0. -1.
<mgrwt>
<rscale>  1 0.30000000E+03</rscale>
<asrwt>0</asrwt>
<pdfrwt beam="1">  1       21 0.77611421E-02 0.30000000E+03</pdfrwt>
<pdfrwt beam="2">0</pdfrwt>
<totfact> 0.13471813E+04</totfact>
</mgrwt>
</event>
<event>
 6    1  0.1273846E-001  0.3000000E+03  0.7818608E-02  0.1093470E+00
         21   -1    0    0  501  502  0.00000000000E+00  0.00000000000E+00  0.68085434145E+01  0.68085434145E+01  0.00000000000E+00 0. -1.
         13   -1    0    0    0    0 -0.00000000000E+00 -0.00000000000E+00 -0.10000000000E+04  0.10000000000E+04  0.00000000000E+00 0.  1.
    9000005    2    1    2  501    0 -0.63771066565E+01 -0.62622774700E+02 -0.82150845292E+03  0.82394976417E+03  0.74024489301E+01 0.  0.
         13    1    3    3    0    0 -0.38121154086E+01 -0.57585230661E+02 -0.74273938200E+03  0.74497810745E+03  0.00000000000E+00 0.  1.
          1    1    3    3  501    0 -0.25649912478E+01 -0.50375440389E+01 -0.78769070925E+02  0.78971656716E+02  0.00000000000E+00 0.  1.
         -1    1    1    2    0  502  0.63771066565E+01  0.62622774700E+02 -0.17168300366E+03  0.18285877924E+03  0.00000000000E+00 0. -1.
<mgrwt>
<rscale>  1 0.30000000E+03</rscale>
<asrwt>0</asrwt>
<pdfrwt beam="1">  1       21 0.24758392E-01 0.30000000E+03</pdfrwt>
<pdfrwt beam="2">0</pdfrwt>
<totfact> 0.15895028E+03</totfact>
</mgrwt>
</event>
<event>
 6    1  0.1273846E-001  0.3000000E+03  0.7818608E-02  0.1093470E+00
         21   -1    0    0  501  502  0.00000000000E+00  0.00000000000E+00  0.37623773912E+01  0.37623773912E+01  0.00000000000E+00 0. -1.
         13   -1    0    0    0    0 -0.00000000000E+00 -0.00000000000E+00 -0.10000000000E+04  0.10000000000E+04  0.00000000000E+00 0.  1.
    9000005    2    1    2  501    0  0.40411590180E+02  0.37649153250E+02 -0.71497306290E+03  0.71712618305E+03  0.57381507607E+01 0.  0.
         13    1    3    3    0    0  0.29812160416E+02  0.26543929099E+02 -0.48376561262E+03  0.48540963426E+03  0.00000000000E+00 0.  1.
          1    1    3    3  501    0  0.10599429764E+02  0.11105224150E+02 -0.23120745029E+03  0.23171654879E+03  0.00000000000E+00 0.  1.
         -3    1    1    2    0  502 -0.40411590180E+02 -0.37649153250E+02 -0.28126455971E+03  0.28663619434E+03  0.00000000000E+00 0. -1.
<mgrwt>
<rscale>  1 0.30000000E+03</rscale>
<asrwt>0</asrwt>
<pdfrwt beam="1">  1       21 0.13681401E-01 0.30000000E+03</pdfrwt>
<pdfrwt beam="2">0</pdfrwt>
<totfact> 0.48785050E+03</totfact>
</mgrwt>
</event>
<event>
 6    1  0.1273846E-001  0.3000000E+03  0.7818608E-02  0.1093470E+00
         21   -1    0    0  501  502  0.00000000000E+00  0.00000000000E+00  0.21504908714E+01  0.21504908714E+01  0.00000000000E+00 0. -1.
         13   -1    0    0    0    0 -0.00000000000E+00 -0.00000000000E+00 -0.10000000000E+04  0.10000000000E+04  0.00000000000E+00 0.  1.
    9000005    2    1    2  501    0  0.29664699600E+02  0.19044443351E+02 -0.82416468666E+03  0.82492435628E+03  0.31745280185E+01 0.  0.
         13    1    3    3    0    0  0.93987712902E+01  0.48169894549E+01 -0.22305471457E+03  0.22330460358E+03  0.00000000000E+00 0.  1.
          3    1    3    3  501    0  0.20265928310E+02  0.14227453896E+02 -0.60110997209E+03  0.60161975270E+03  0.00000000000E+00 0.  1.
         -3    1    1    2    0  502 -0.29664699600E+02 -0.19044443351E+02 -0.17368482247E+03  0.17722613459E+03  0.00000000000E+00 0. -1.
<mgrwt>
<rscale>  1 0.30000000E+03</rscale>
<asrwt>0</asrwt>
<pdfrwt beam="1">  1       21 0.78199833E-02 0.30000000E+03</pdfrwt>
<pdfrwt beam="2">0</pdfrwt>
<totfact> 0.13294522E+04</totfact>
</mgrwt>
</event>
<event>
 6    1  0.1273846E-001  0.3000000E+03  0.7818608E-02  0.1093470E+00
         21   -1    0    0  501  502  0.00000000000E+00  0.00000000000E+00  0.92831398445E+00  0.92831398445E+00  0.00000000000E+00 0. -1.
         13   -1    0    0    0    0 -0.00000000000E+00 -0.00000000000E+00 -0.10000000000E+04  0.10000000000E+04  0.00000000000E+00 0.  1.
    9000005    2    1    2  501    0  0.16910495907E+02 -0.25142332183E+02 -0.53076321677E+03  0.53164063664E+03  0.37513347559E+01 0.  0.
         13    1    3    3    0    0  0.16645972424E+02 -0.24887674688E+02 -0.51259681514E+03  0.51347052461E+03  0.00000000000E+00 0.  1.
          3    1    3    3  501    0  0.26452348284E+00 -0.25465749521E+00 -0.18166401629E+02  0.18170112033E+02  0.00000000000E+00 0.  1.
         -3    1    1    2    0  502 -0.16910495907E+02  0.25142332183E+02 -0.46830846925E+03  0.46928767734E+03  0.00000000000E+00 0. -1.
<mgrwt>
<rscale>  1 0.30000000E+03</rscale>
<asrwt>0</asrwt>
<pdfrwt beam="1">  1       21 0.33756943E-02 0.30000000E+03</pdfrwt>
<pdfrwt beam="2">0</pdfrwt>
<totfact> 0.55897026E+04</totfact>
</mgrwt>
</event>
<event>
 6    1  0.1273846E-001  0.3000000E+03  0.7818608E-02  0.1093470E+00
         21   -1    0    0  501  502  0.00000000000E+00  0.00000000000E+00  0.15421717851E+01  0.15421717851E+01  0.00000000000E+00 0. -1.
         13   -1    0    0    0    0 -0.00000000000E+00 -0.00000000000E+00 -0.10000000000E+04  0.10000000000E+04  0.00000000000E+00 0.  1.
    9000005    2    1    2  501    0 -0.30734202083E+02  0.43752321820E+01 -0.80549934166E+03  0.80610238216E+03  0.28508381935E+01 0.  0.
         13    1    3    3    0    0 -0.90299184339E+01  0.73585149248E-01 -0.24608713120E+03  0.24625275833E+03  0.00000000000E+00 0.  1.
          3    1    3    3  501    0 -0.21704283649E+02  0.43016470328E+01 -0.55941221046E+03  0.55984962383E+03  0.00000000000E+00 0.  1.
         -1    1    1    2    0  502  0.30734202083E+02 -0.43752321820E+01 -0.19295848656E+03  0.19543978963E+03  0.00000000000E+00 0. -1.
<mgrwt>
<rscale>  1 0.30000000E+03</rscale>
<asrwt>0</asrwt>
<pdfrwt beam="1">  1       21 0.56079092E-02 0.30000000E+03</pdfrwt>
<pdfrwt beam="2">0</pdfrwt>
<totfact> 0.23671623E+04</totfact>
</mgrwt>
</event>
<event>
 6    1  0.1273846E-001  0.3000000E+03  0.7818608E-02  0.1093470E+00
         21   -1    0    0  501  502  0.00000000000E+00  0.00000000000E+00  0.61975445735E+01  0.61975445735E+01  0.00000000000E+00 0. -1.
         13   -1    0    0    0    0 -0.00000000000E+00 -0.00000000000E+00 -0.10000000000E+04  0.10000000000E+04  0.00000000000E+00 0.  1.
    9000005    2    1    2  501    0  0.39957581645E+02  0.17539153595E+02 -0.91559027905E+03  0.91663541657E+03  0.32707142740E+01 0.  0.
         13    1    3    3    0    0  0.61598742504E+01  0.22382483836E+01 -0.16184861537E+03  0.16198125850E+03  0.00000000000E+00 0.  1.
          3    1    3    3  501    0  0.33797707394E+02  0.15300905212E+02 -0.75374166368E+03  0.75465415807E+03  0.00000000000E+00 0.  1.
         -1    1    1    2    0  502 -0.39957581645E+02 -0.17539153595E+02 -0.78212176377E+02  0.89562128008E+02  0.00000000000E+00 0. -1.
<mgrwt>
<rscale>  1 0.30000000E+03</rscale>
<asrwt>0</asrwt>
<pdfrwt beam="1">  1       21 0.22536573E-01 0.30000000E+03</pdfrwt>
<pdfrwt beam="2">0</pdfrwt>
<totfact> 0.19078720E+03</totfact>
</mgrwt>
</event>
<event>
 6    1  0.1273846E-001  0.3000000E+03  0.7818608E-02  0.1093470E+00
         21   -1    0    0  501  502  0.00000000000E+00  0.00000000000E+00  0.25851207900E+01  0.25851207900E+01  0.00000000000E+00 0. -1.
         13   -1    0    0    0    0 -0.00000000000E+00 -0.00000000000E+00 -0.10000000000E+04  0.10000000000E+04  0.00000000000E+00 0.  1.
    9000005    2    1    2  501    0  0.44521905225E+02 -0.23897502399E+02 -0.44766651815E+03  0.45051940808E+03  0.30224022380E+01 0.  0.
         13    1    3    3    0    0  0.23140923496E+02 -0.14108187647E+02 -0.23746789450E+03  0.23900950654E+03  0.00000000000E+00 0.  1.
          3    1    3    3  501    0  0.21380981729E+02 -0.97893147519E+01 -0.21019862365E+03  0.21150990154E+03  0.00000000000E+00 0.  1.
         -3    1    1    2    0  502 -0.44521905225E+02  0.23897502399E+02 -0.54974836106E+03  0.55206571271E+03  0.00000000000E+00 0. -1.
<mgrwt>
<rscale>  1 0.30000000E+03</rscale>
<asrwt>0</asrwt>
<pdfrwt beam="1">  1       21 0.94004591E-02 0.30000000E+03</pdfrwt>
<pdfrwt beam="2">0</pdfrwt>
<totfact> 0.96061874E+03</totfact>
</mgrwt>
</event>
<event>
 6    1  0.1273846E-001  0.3000000E+03  0.7818608E-02  0.1093470E+00
         21   -1    0    0  501  502  0.00000000000E+00  0.00000000000E+00  0.12305965072E+01  0.12305965072E+01  0.00000000000E+00 0. -1.
         13   -1    0    0    0    0 -0.00000000000E+00 -0.00000000000E+00 -0.10000000000E+04  0.10000000000E+04  0.00000000000E+00 0.  1.
    9000005    2    1    2  501    0 -0.14294620336E+02  0.26553674949E+02 -0.24730710540E+03  0.24916343243E+03  0.34896785754E+01 0.  0.
         13    1    3    3    0    0 -0.11004990248E+02  0.22566260580E+02 -0.19773700829E+03  0.19932453531E+03  0.00000000000E+00 0.  1.
          1    1    3    3  501    0 -0.32896300885E+01  0.39874143684E+01 -0.49570097102E+02  0.49838897120E+02  0.00000000000E+00 0.  1.
         -1    1    1    2    0  502  0.14294620336E+02 -0.26553674949E+02 -0.75146229810E+03  0.75206716408E+03  0.00000000000E+00 0. -1.
<mgrwt>
<rscale>  1 0.30000000E+03</rscale>
<asrwt>0</asrwt>
<pdfrwt beam="1">  1       21 0.44749058E-02 0.30000000E+03</pdfrwt>
<pdfrwt beam="2">0</pdfrwt>
<totfact> 0.34786653E+04</totfact>
</mgrwt>
</event>
<event>
 6    1  0.1273846E-001  0.3000000E+03  0.7818608E-02  0.1093470E+00
         21   -1    0    0  501  502  0.00000000000E+00  0.00000000000E+00  0.12420181033E+01  0.12420181033E+01  0.00000000000E+00 0. -1.
         13   -1    0    0    0    0 -0.00000000000E+00 -0.00000000000E+00 -0.10000000000E+04  0.10000000000E+04  0.00000000000E+00 0.  1.
    9000005    2    1    2  501    0  0.25809943409E+02  0.18970609796E+02 -0.70620062216E+03  0.70693631658E+03  0.36877827400E+01 0.  0.
         13    1    3    3    0    0  0.82089768740E+01  0.40331983973E+01 -0.20923632836E+03  0.20943613608E+03  0.00000000000E+00 0.  1.
          1    1    3    3  501    0  0.17600966535E+02  0.14937411398E+02 -0.49696429380E+03  0.49750018050E+03  0.00000000000E+00 0.  1.
         -1    1    1    2    0  502 -0.25809943409E+02 -0.18970609796E+02 -0.29255735973E+03  0.29430570152E+03  0.00000000000E+00 0. -1.
<mgrwt>
<rscale>  1 0.30000000E+03</rscale>
<asrwt>0</asrwt>
<pdfrwt beam="1">  1       21 0.45164390E-02 0.30000000E+03</pdfrwt>
<pdfrwt beam="2">0</pdfrwt>
<totfact> 0.34245600E+04</totfact>
</mgrwt>
</event>
<event>
 6    1  0.1273846E-001  0.3000000E+03  0.7818608E-02  0.1093470E+00
         21   -1    0    0  501  502  0.00000000000E+00  0.00000000000E+00  0.22451138189E+01  0.22451138189E+01  0.00000000000E+00 0. -1.
         13   -1    0    0    0    0 -0.00000000000E+00 -0.00000000000E+00 -0.10000000000E+04  0.10000000000E+04  0.00000000000E+00 0.  1.
    9000005    2    1    2  501    0  0.44583633819E+02 -0.10520998103E+02 -0.39958033671E+03  0.40231913219E+03  0.98917556828E+01 0.  0.
         13    1    3    3    0    0  0.15491127531E+02  0.58478575865E+00 -0.11501512411E+03  0.11605514112E+03  0.00000000000E+00 0.  1.
          3    1    3    3  501    0  0.29092506287E+02 -0.11105783862E+02 -0.28456521261E+03  0.28626399107E+03  0.00000000000E+00 0.  1.
         -3    1    1    2    0  502 -0.44583633819E+02  0.10520998103E+02 -0.59817454947E+03  0.59992598163E+03  0.00000000000E+00 0. -1.
<mgrwt>
<rscale>  1 0.30000000E+03</rscale>
<asrwt>0</asrwt>
<pdfrwt beam="1">  1       21 0.81640675E-02 0.30000000E+03</pdfrwt>
<pdfrwt beam="2">0</pdfrwt>
<totfact> 0.12326144E+04</totfact>
</mgrwt>
</event>
<event>
 6    1  0.1273846E-001  0.3000000E+03  0.7818608E-02  0.1093470E+00
         21   -1    0    0  501  502  0.00000000000E+00  0.00000000000E+00  0.93723788006E+00  0.93723788006E+00  0.00000000000E+00 0. -1.
         13   -1    0    0    0    0 -0.00000000000E+00 -0.00000000000E+00 -0.10000000000E+04  0.10000000000E+04  0.00000000000E+00 0.  1.
    9000005    2    1    2  501    0  0.72485245177E+01  0.29356219231E+02 -0.57010705526E+03  0.57091709049E+03  0.31529413350E+01 0.  0.
         13    1    3    3    0    0  0.25708719042E+01  0.65236650052E+01 -0.11488487879E+03  0.11509866620E+03  0.00000000000E+00 0.  1.
          1    1    3    3  501    0  0.46776526135E+01  0.22832554226E+02 -0.45522217648E+03  0.45581842429E+03  0.00000000000E+00 0.  1.
         -3    1    1    2    0  502 -0.72485245177E+01 -0.29356219231E+02 -0.42895570686E+03  0.43002014739E+03  0.00000000000E+00 0. -1.
<mgrwt>
<rscale>  1 0.30000000E+03</rscale>
<asrwt>0</asrwt>
<pdfrwt beam="1">  1       21 0.34081449E-02 0.30000000E+03</pdfrwt>
<pdfrwt beam="2">0</pdfrwt>
<totfact> 0.55010604E+04</totfact>
</mgrwt>
</event>
<event>
 6    1  0.1273846E-001  0.3000000E+03  0.7818608E-02  0.1093470E+00
         21   -1    0    0  501  502  0.00000000000E+00  0.00000000000E+00  0.32728038235E+01  0.32728038235E+01  0.00000000000E+00 0. -1.
         13   -1    0    0    0    0 -0.00000000000E+00 -0.00000000000E+00 -0.10000000000E+04  0.10000000000E+04  0.00000000000E+00 0.  1.
    9000005    2    1    2  501    0 -0.21397348325E+02 -0.26184171150E+02 -0.90287756882E+03  0.90351705266E+03  0.34209421393E+01 0.  0.
         13    1    3    3    0    0 -0.62148024056E+01 -0.54090905575E+01 -0.20695455702E+03  0.20711849435E+03  0.00000000000E+00 0.  1.
          3    1    3    3  501    0 -0.15182545919E+02 -0.20775080593E+02 -0.69592301179E+03  0.69639855831E+03  0.00000000000E+00 0.  1.
         -1    1    1    2    0  502  0.21397348325E+02  0.26184171150E+02 -0.93849627360E+02  0.99755751161E+02  0.00000000000E+00 0. -1.
<mgrwt>
<rscale>  1 0.30000000E+03</rscale>
<asrwt>0</asrwt>
<pdfrwt beam="1">  1       21 0.11901130E-01 0.30000000E+03</pdfrwt>
<pdfrwt beam="2">0</pdfrwt>
<totfact> 0.62908292E+03</totfact>
</mgrwt>
</event>
<event>
 6    1  0.1273846E-001  0.3000000E+03  0.7818608E-02  0.1093470E+00
         21   -1    0    0  501  502  0.00000000000E+00  0.00000000000E+00  0.10273710920E+01  0.10273710920E+01  0.00000000000E+00 0. -1.
         13   -1    0    0    0    0 -0.00000000000E+00 -0.00000000000E+00 -0.10000000000E+04  0.10000000000E+04  0.00000000000E+00 0.  1.
    9000005    2    1    2  501    0  0.30436060741E+02 -0.21030112944E+00 -0.64711497056E+03  0.64785572761E+03  0.57324215930E+01 0.  0.
         13    1    3    3    0    0  0.10670447533E+02  0.26072052213E+01 -0.24151951388E+03  0.24176916998E+03  0.00000000000E+00 0.  1.
          3    1    3    3  501    0  0.19765613209E+02 -0.28175063507E+01 -0.40559545668E+03  0.40608655763E+03  0.00000000000E+00 0.  1.
         -1    1    1    2    0  502 -0.30436060741E+02  0.21030112944E+00 -0.35185765835E+03  0.35317164348E+03  0.00000000000E+00 0. -1.
<mgrwt>
<rscale>  1 0.30000000E+03</rscale>
<asrwt>0</asrwt>
<pdfrwt beam="1">  1       21 0.37359028E-02 0.30000000E+03</pdfrwt>
<pdfrwt beam="2">0</pdfrwt>
<totfact> 0.47164616E+04</totfact>
</mgrwt>
</event>
<event>
 6    1  0.1273846E-001  0.3000000E+03  0.7818608E-02  0.1093470E+00
         21   -1    0    0  501  502  0.00000000000E+00  0.00000000000E+00  0.16529964577E+01  0.16529964577E+01  0.00000000000E+00 0. -1.
         13   -1    0    0    0    0 -0.00000000000E+00 -0.00000000000E+00 -0.10000000000E+04  0.10000000000E+04  0.00000000000E+00 0.  1.
    9000005    2    1    2  501    0  0.38937554562E+02  0.35004981745E+00 -0.64114497885E+03  0.64233483364E+03  0.33013491211E+01 0.  0.
         13    1    3    3    0    0  0.91648415642E+01  0.10272934573E+01 -0.13521223919E+03  0.13552637854E+03  0.00000000000E+00 0.  1.
          3    1    3    3  501    0  0.29772712998E+02 -0.67724363982E+00 -0.50593273967E+03  0.50680845510E+03  0.00000000000E+00 0.  1.
         -1    1    1    2    0  502 -0.38937554562E+02 -0.35004981745E+00 -0.35720202469E+03  0.35931816282E+03  0.00000000000E+00 0. -1.
<mgrwt>
<rscale>  1 0.30000000E+03</rscale>
<asrwt>0</asrwt>
<pdfrwt beam="1">  1       21 0.60109089E-02 0.30000000E+03</pdfrwt>
<pdfrwt beam="2">0</pdfrwt>
<totfact> 0.21005753E+04</totfact>
</mgrwt>
</event>
<event>
 6    1  0.1273846E-001  0.3000000E+03  0.7818608E-02  0.1093470E+00
         21   -1    0    0  501  502  0.00000000000E+00  0.00000000000E+00  0.91351625403E+00  0.91351625403E+00  0.00000000000E+00 0. -1.
         13   -1    0    0    0    0 -0.00000000000E+00 -0.00000000000E+00 -0.10000000000E+04  0.10000000000E+04  0.00000000000E+00 0.  1.
    9000005    2    1    2  501    0  0.59099186264E+00  0.30101288907E+02 -0.47788675252E+03  0.47884494154E+03  0.32082623168E+01 0.  0.
         13    1    3    3    0    0  0.60289181273E+00  0.98197296983E+00 -0.16459160348E+02  0.16499445712E+02  0.00000000000E+00 0.  1.
          3    1    3    3  501    0 -0.11899950092E-01  0.29119315937E+02 -0.46142759217E+03  0.46234549583E+03  0.00000000000E+00 0.  1.
         -1    1    1    2    0  502 -0.59099186264E+00 -0.30101288907E+02 -0.52119973123E+03  0.52206857471E+03  0.00000000000E+00 0. -1.
<mgrwt>
<rscale>  1 0.30000000E+03</rscale>
<asrwt>0</asrwt>
<pdfrwt beam="1">  1       21 0.33218843E-02 0.30000000E+03</pdfrwt>
<pdfrwt beam="2">0</pdfrwt>
<totfact> 0.57416862E+04</totfact>
</mgrwt>
</event>
<event>
 6    1  0.1273846E-001  0.3000000E+03  0.7818608E-02  0.1093470E+00
         21   -1    0    0  501  502  0.00000000000E+00  0.00000000000E+00  0.23615366223E+01  0.23615366223E+01  0.00000000000E+00 0. -1.
         13   -1    0    0    0    0 -0.00000000000E+00 -0.00000000000E+00 -0.10000000000E+04  0.10000000000E+04  0.00000000000E+00 0.  1.
    9000005    2    1    2  501    0  0.31566453063E+02  0.22997705858E+02 -0.79660721762E+03  0.79757165112E+03  0.34848342945E+01 0.  0.
         13    1    3    3    0    0  0.11281282294E+02  0.64043584911E+01 -0.27887194697E+03  0.27917350509E+03  0.00000000000E+00 0.  1.
          3    1    3    3  501    0  0.20285170769E+02  0.16593347367E+02 -0.51773527065E+03  0.51839814602E+03  0.00000000000E+00 0.  1.
         -1    1    1    2    0  502 -0.31566453063E+02 -0.22997705858E+02 -0.20103124576E+03  0.20478988550E+03  0.00000000000E+00 0. -1.
<mgrwt>
<rscale>  1 0.30000000E+03</rscale>
<asrwt>0</asrwt>
<pdfrwt beam="1">  1       21 0.85874240E-02 0.30000000E+03</pdfrwt>
<pdfrwt beam="2">0</pdfrwt>
<totfact> 0.11275875E+04</totfact>
</mgrwt>
</event>
<event>
 6    1  0.1273846E-001  0.3000000E+03  0.7818608E-02  0.1093470E+00
         21   -1    0    0  501  502  0.00000000000E+00  0.00000000000E+00  0.18150132029E+01  0.18150132029E+01  0.00000000000E+00 0. -1.
         13   -1    0    0    0    0 -0.00000000000E+00 -0.00000000000E+00 -0.10000000000E+04  0.10000000000E+04  0.00000000000E+00 0.  1.
    9000005    2    1    2  501    0  0.30210372973E+02 -0.19395815020E+01 -0.85124372508E+03  0.85178780565E+03  0.31871227846E+01 0.  0.
         13    1    3    3    0    0  0.15192129460E+02 -0.30016154830E-01 -0.39042251722E+03  0.39071798481E+03  0.00000000000E+00 0.  1.
          1    1    3    3  501    0  0.15018243513E+02 -0.19095653471E+01 -0.46082120786E+03  0.46106982084E+03  0.00000000000E+00 0.  1.
         -1    1    1    2    0  502 -0.30210372973E+02  0.19395815020E+01 -0.14694126171E+03  0.15002720755E+03  0.00000000000E+00 0. -1.
<mgrwt>
<rscale>  1 0.30000000E+03</rscale>
<asrwt>0</asrwt>
<pdfrwt beam="1">  1       21 0.66000619E-02 0.30000000E+03</pdfrwt>
<pdfrwt beam="2">0</pdfrwt>
<totfact> 0.17870827E+04</totfact>
</mgrwt>
</event>
<event>
 6    1  0.1273846E-001  0.3000000E+03  0.7818608E-02  0.1093470E+00
         21   -1    0    0  501  502  0.00000000000E+00  0.00000000000E+00  0.20459809544E+01  0.20459809544E+01  0.00000000000E+00 0. -1.
         13   -1    0    0    0    0 -0.00000000000E+00 -0.00000000000E+00 -0.10000000000E+04  0.10000000000E+04  0.00000000000E+00 0.  1.
    9000005    2    1    2  501    0  0.25272092013E+02  0.25671660708E+02 -0.80129190236E+03  0.80211173942E+03  0.41008451760E+01 0.  0.
         13    1    3    3    0    0  0.14925916684E+02  0.16162752353E+02 -0.52942420867E+03  0.52988112844E+03  0.00000000000E+00 0.  1.
          1    1    3    3  501    0  0.10346175328E+02  0.95089083554E+01 -0.27186769370E+03  0.27223061098E+03  0.00000000000E+00 0.  1.
         -1    1    1    2    0  502 -0.25272092013E+02 -0.25671660708E+02 -0.19666211668E+03  0.19993424153E+03  0.00000000000E+00 0. -1.
<mgrwt>
<rscale>  1 0.30000000E+03</rscale>
<asrwt>0</asrwt>
<pdfrwt beam="1">  1       21 0.74399464E-02 0.30000000E+03</pdfrwt>
<pdfrwt beam="2">0</pdfrwt>
<totfact> 0.14507197E+04</totfact>
</mgrwt>
</event>
<event>
 6    1  0.1273846E-001  0.3000000E+03  0.7818608E-02  0.1093470E+00
         21   -1    0    0  501  502  0.00000000000E+00  0.00000000000E+00  0.23939252290E+01  0.23939252290E+01  0.00000000000E+00 0. -1.
         13   -1    0    0    0    0 -0.00000000000E+00 -0.00000000000E+00 -0.10000000000E+04  0.10000000000E+04  0.00000000000E+00 0.  1.
    9000005    2    1    2  501    0  0.27741657917E+02 -0.27558857297E+02 -0.79972845350E+03  0.80068957922E+03  0.30187303246E+01 0.  0.
         13    1    3    3    0    0  0.19461104794E+02 -0.19243048775E+02 -0.53054684724E+03  0.53125228154E+03  0.00000000000E+00 0.  1.
          1    1    3    3  501    0  0.82805531239E+01 -0.83158085214E+01 -0.26918160626E+03  0.26943729768E+03  0.00000000000E+00 0.  1.
         -3    1    1    2    0  502 -0.27741657917E+02  0.27558857297E+02 -0.19787762127E+03  0.20170434601E+03  0.00000000000E+00 0. -1.
<mgrwt>
<rscale>  1 0.30000000E+03</rscale>
<asrwt>0</asrwt>
<pdfrwt beam="1">  1       21 0.87052010E-02 0.30000000E+03</pdfrwt>
<pdfrwt beam="2">0</pdfrwt>
<totfact> 0.11007909E+04</totfact>
</mgrwt>
</event>
<event>
 6    1  0.1273846E-001  0.3000000E+03  0.7818608E-02  0.1093470E+00
         21   -1    0    0  501  502  0.00000000000E+00  0.00000000000E+00  0.16308172061E+01  0.16308172061E+01  0.00000000000E+00 0. -1.
         13   -1    0    0    0    0 -0.00000000000E+00 -0.00000000000E+00 -0.10000000000E+04  0.10000000000E+04  0.00000000000E+00 0.  1.
    9000005    2    1    2  501    0  0.29060535930E+02 -0.16055984782E+02 -0.78353515340E+03  0.78424643511E+03  0.35811961003E+01 0.  0.
         13    1    3    3    0    0  0.74074712549E+01 -0.24317553739E+01 -0.19297461994E+03  0.19313204811E+03  0.00000000000E+00 0.  1.
          3    1    3    3  501    0  0.21653064675E+02 -0.13624229408E+02 -0.59056053346E+03  0.59111438700E+03  0.00000000000E+00 0.  1.
         -3    1    1    2    0  502 -0.29060535930E+02  0.16055984782E+02 -0.21483402939E+03  0.21738438210E+03  0.00000000000E+00 0. -1.
<mgrwt>
<rscale>  1 0.30000000E+03</rscale>
<asrwt>0</asrwt>
<pdfrwt beam="1">  1       21 0.59302569E-02 0.30000000E+03</pdfrwt>
<pdfrwt beam="2">0</pdfrwt>
<totfact> 0.21500777E+04</totfact>
</mgrwt>
</event>
<event>
 6    1  0.1273846E-001  0.3000000E+03  0.7818608E-02  0.1093470E+00
         21   -1    0    0  501  502  0.00000000000E+00  0.00000000000E+00  0.23957367710E+01  0.23957367710E+01  0.00000000000E+00 0. -1.
         13   -1    0    0    0    0 -0.00000000000E+00 -0.00000000000E+00 -0.10000000000E+04  0.10000000000E+04  0.00000000000E+00 0.  1.
    9000005    2    1    2  501    0  0.10511178217E+02  0.29014163462E+02 -0.11123510941E+03  0.11548955042E+03  0.35043032726E+01 0.  0.
         13    1    3    3    0    0  0.10087572515E+02  0.28018046250E+02 -0.10916227021E+03  0.11315109930E+03  0.00000000000E+00 0.  1.
          1    1    3    3  501    0  0.42360570259E+00  0.99611721136E+00 -0.20728391931E+01  0.23384511136E+01  0.00000000000E+00 0.  1.
         -1    1    1    2    0  502 -0.10511178217E+02 -0.29014163462E+02 -0.88636915382E+03  0.88690618636E+03  0.00000000000E+00 0. -1.
<mgrwt>
<rscale>  1 0.30000000E+03</rscale>
<asrwt>0</asrwt>
<pdfrwt beam="1">  1       21 0.87117884E-02 0.30000000E+03</pdfrwt>
<pdfrwt beam="2">0</pdfrwt>
<totfact> 0.10993208E+04</totfact>
</mgrwt>
</event>
<event>
 6    1  0.1273846E-001  0.3000000E+03  0.7818608E-02  0.1093470E+00
         21   -1    0    0  501  502  0.00000000000E+00  0.00000000000E+00  0.12942669526E+01  0.12942669526E+01  0.00000000000E+00 0. -1.
         13   -1    0    0    0    0 -0.00000000000E+00 -0.00000000000E+00 -0.10000000000E+04  0.10000000000E+04  0.00000000000E+00 0.  1.
    9000005    2    1    2  501    0  0.26470677244E+02 -0.23869586913E+02 -0.44093586111E+03  0.44238668607E+03  0.33305346521E+01 0.  0.
         13    1    3    3    0    0  0.16119854222E+02 -0.16652487206E+02 -0.28848402065E+03  0.28941351938E+03  0.00000000000E+00 0.  1.
          1    1    3    3  501    0  0.10350823022E+02 -0.72170997077E+01 -0.15245184046E+03  0.15297316669E+03  0.00000000000E+00 0.  1.
         -1    1    1    2    0  502 -0.26470677244E+02  0.23869586913E+02 -0.55776987193E+03  0.55890758088E+03  0.00000000000E+00 0. -1.
<mgrwt>
<rscale>  1 0.30000000E+03</rscale>
<asrwt>0</asrwt>
<pdfrwt beam="1">  1       21 0.47064352E-02 0.30000000E+03</pdfrwt>
<pdfrwt beam="2">0</pdfrwt>
<totfact> 0.31929965E+04</totfact>
</mgrwt>
</event>
<event>
 6    1  0.1273846E-001  0.3000000E+03  0.7818608E-02  0.1093470E+00
         21   -1    0    0  501  502  0.00000000000E+00  0.00000000000E+00  0.15557622722E+01  0.15557622722E+01  0.00000000000E+00 0. -1.
         13   -1    0    0    0    0 -0.00000000000E+00 -0.00000000000E+00 -0.10000000000E+04  0.10000000000E+04  0.00000000000E+00 0.  1.
    9000005    2    1    2  501    0 -0.15512442175E+02  0.25939634219E+02 -0.82014907911E+03  0.82071698304E+03  0.42841345351E+01 0.  0.
         13    1    3    3    0    0 -0.39776399059E+01  0.10084091772E+02 -0.32080552931E+03  0.32098862622E+03  0.00000000000E+00 0.  1.
          3    1    3    3  501    0 -0.11534802269E+02  0.15855542448E+02 -0.49934354979E+03  0.49972835682E+03  0.00000000000E+00 0.  1.
         -1    1    1    2    0  502  0.15512442175E+02 -0.25939634219E+02 -0.17829515862E+03  0.18083877923E+03  0.00000000000E+00 0. -1.
<mgrwt>
<rscale>  1 0.30000000E+03</rscale>
<asrwt>0</asrwt>
<pdfrwt beam="1">  1       21 0.56573293E-02 0.30000000E+03</pdfrwt>
<pdfrwt beam="2">0</pdfrwt>
<totfact> 0.23317514E+04</totfact>
</mgrwt>
</event>
<event>
 6    1  0.1273846E-001  0.3000000E+03  0.7818608E-02  0.1093470E+00
         21   -1    0    0  501  502  0.00000000000E+00  0.00000000000E+00  0.11604035809E+01  0.11604035809E+01  0.00000000000E+00 0. -1.
         13   -1    0    0    0    0 -0.00000000000E+00 -0.00000000000E+00 -0.10000000000E+04  0.10000000000E+04  0.00000000000E+00 0.  1.
    9000005    2    1    2  501    0 -0.31137591602E+02  0.13404922850E+02 -0.46482089863E+03  0.46606675650E+03  0.32422423744E+01 0.  0.
         13    1    3    3    0    0 -0.10700783010E+02  0.35538074052E+01 -0.17091544631E+03  0.17128697000E+03  0.00000000000E+00 0.  1.
          1    1    3    3  501    0 -0.20436808593E+02  0.98511154450E+01 -0.29390545233E+03  0.29477978650E+03  0.00000000000E+00 0.  1.
         -1    1    1    2    0  502  0.31137591602E+02 -0.13404922850E+02 -0.53401869778E+03  0.53509364709E+03  0.00000000000E+00 0. -1.
<mgrwt>
<rscale>  1 0.30000000E+03</rscale>
<asrwt>0</asrwt>
<pdfrwt beam="1">  1       21 0.42196583E-02 0.30000000E+03</pdfrwt>
<pdfrwt beam="2">0</pdfrwt>
<totfact> 0.38422245E+04</totfact>
</mgrwt>
</event>
<event>
 6    1  0.1273846E-001  0.3000000E+03  0.7818608E-02  0.1093470E+00
         21   -1    0    0  501  502  0.00000000000E+00  0.00000000000E+00  0.89929966028E+01  0.89929966028E+01  0.00000000000E+00 0. -1.
         13   -1    0    0    0    0 -0.00000000000E+00 -0.00000000000E+00 -0.10000000000E+04  0.10000000000E+04  0.00000000000E+00 0.  1.
    9000005    2    1    2  501    0 -0.54384551417E+02  0.12625379721E+02 -0.90325992833E+03  0.90498997343E+03  0.33577134940E+01 0.  0.
         13    1    3    3    0    0 -0.71366267633E+01  0.53091131390E+00 -0.11924830913E+03  0.11946285003E+03  0.00000000000E+00 0.  1.
          3    1    3    3  501    0 -0.47247924653E+02  0.12094468407E+02 -0.78401161920E+03  0.78552712340E+03  0.00000000000E+00 0.  1.
         -1    1    1    2    0  502  0.54384551417E+02 -0.12625379721E+02 -0.87747075069E+02  0.10400302317E+03  0.00000000000E+00 0. -1.
<mgrwt>
<rscale>  1 0.30000000E+03</rscale>
<asrwt>0</asrwt>
<pdfrwt beam="1">  1       21 0.32701875E-01 0.30000000E+03</pdfrwt>
<pdfrwt beam="2">0</pdfrwt>
<totfact> 0.91391025E+02</totfact>
</mgrwt>
</event>
<event>
 6    1  0.1273846E-001  0.3000000E+03  0.7818608E-02  0.1093470E+00
         21   -1    0    0  501  502  0.00000000000E+00  0.00000000000E+00  0.31123117422E+01  0.31123117422E+01  0.00000000000E+00 0. -1.
         13   -1    0    0    0    0 -0.00000000000E+00 -0.00000000000E+00 -0.10000000000E+04  0.10000000000E+04  0.00000000000E+00 0.  1.
    9000005    2    1    2  501    0  0.40117575913E+02 -0.16628903414E+02 -0.81260542362E+03  0.81378219426E+03  0.52862908921E+01 0.  0.
         13    1    3    3    0    0  0.12214484778E+02 -0.76470800038E+01 -0.25528013977E+03  0.25568656835E+03  0.00000000000E+00 0.  1.
          3    1    3    3  501    0  0.27903091135E+02 -0.89818234104E+01 -0.55732528385E+03  0.55809562591E+03  0.00000000000E+00 0.  1.
         -3    1    1    2    0  502 -0.40117575913E+02  0.16628903414E+02 -0.18428226463E+03  0.18933011748E+03  0.00000000000E+00 0. -1.
<mgrwt>
<rscale>  1 0.30000000E+03</rscale>
<asrwt>0</asrwt>
<pdfrwt beam="1">  1       21 0.11317521E-01 0.30000000E+03</pdfrwt>
<pdfrwt beam="2">0</pdfrwt>
<totfact> 0.68896361E+03</totfact>
</mgrwt>
</event>
<event>
 6    1  0.1273846E-001  0.3000000E+03  0.7818608E-02  0.1093470E+00
         21   -1    0    0  501  502  0.00000000000E+00  0.00000000000E+00  0.14269919181E+01  0.14269919181E+01  0.00000000000E+00 0. -1.
         13   -1    0    0    0    0 -0.00000000000E+00 -0.00000000000E+00 -0.10000000000E+04  0.10000000000E+04  0.00000000000E+00 0.  1.
    9000005    2    1    2  501    0  0.31923470865E+02 -0.18669709118E+02 -0.59750333640E+03  0.59865590610E+03  0.33152473257E+01 0.  0.
         13    1    3    3    0    0  0.30017003901E+02 -0.17448892804E+02 -0.54597160751E+03  0.54707447445E+03  0.00000000000E+00 0.  1.
          1    1    3    3  501    0  0.19064669640E+01 -0.12208163142E+01 -0.51531728889E+02  0.51581431650E+02  0.00000000000E+00 0.  1.
         -3    1    1    2    0  502 -0.31923470865E+02  0.18669709118E+02 -0.40106967168E+03  0.40277108582E+03  0.00000000000E+00 0. -1.
<mgrwt>
<rscale>  1 0.30000000E+03</rscale>
<asrwt>0</asrwt>
<pdfrwt beam="1">  1       21 0.51890725E-02 0.30000000E+03</pdfrwt>
<pdfrwt beam="2">0</pdfrwt>
<totfact> 0.27036867E+04</totfact>
</mgrwt>
</event>
<event>
 6    1  0.1273846E-001  0.3000000E+03  0.7818608E-02  0.1093470E+00
         21   -1    0    0  501  502  0.00000000000E+00  0.00000000000E+00  0.16527849846E+01  0.16527849846E+01  0.00000000000E+00 0. -1.
         13   -1    0    0    0    0 -0.00000000000E+00 -0.00000000000E+00 -0.10000000000E+04  0.10000000000E+04  0.00000000000E+00 0.  1.
    9000005    2    1    2  501    0 -0.36420050960E+02 -0.27337811065E+01 -0.71704718928E+03  0.71799172289E+03  0.46420696163E+01 0.  0.
         13    1    3    3    0    0 -0.29454395810E+02 -0.16663756275E+01 -0.60985505670E+03  0.61056820129E+03  0.00000000000E+00 0.  1.
          3    1    3    3  501    0 -0.69656551497E+01 -0.10674054791E+01 -0.10719213258E+03  0.10742352160E+03  0.00000000000E+00 0.  1.
         -3    1    1    2    0  502  0.36420050960E+02  0.27337811065E+01 -0.28130002573E+03  0.28366106210E+03  0.00000000000E+00 0. -1.
<mgrwt>
<rscale>  1 0.30000000E+03</rscale>
<asrwt>0</asrwt>
<pdfrwt beam="1">  1       21 0.60101399E-02 0.30000000E+03</pdfrwt>
<pdfrwt beam="2">0</pdfrwt>
<totfact> 0.21010389E+04</totfact>
</mgrwt>
</event>
<event>
 6    1  0.1273846E-001  0.3000000E+03  0.7818608E-02  0.1093470E+00
         21   -1    0    0  501  502  0.00000000000E+00  0.00000000000E+00  0.28078208874E+01  0.28078208874E+01  0.00000000000E+00 0. -1.
         13   -1    0    0    0    0 -0.00000000000E+00 -0.00000000000E+00 -0.10000000000E+04  0.10000000000E+04  0.00000000000E+00 0.  1.
    9000005    2    1    2  501    0  0.21886310212E+02  0.36859570620E+02 -0.79279653435E+03  0.79396525311E+03  0.41036247458E+01 0.  0.
         13    1    3    3    0    0  0.32201725837E+01  0.56643841379E+01 -0.95804369797E+02  0.96025684227E+02  0.00000000000E+00 0.  1.
          1    1    3    3  501    0  0.18666137628E+02  0.31195186482E+02 -0.69699216456E+03  0.69793956888E+03  0.00000000000E+00 0.  1.
         -1    1    1    2    0  502 -0.21886310212E+02 -0.36859570620E+02 -0.20439564476E+03  0.20884256778E+03  0.00000000000E+00 0. -1.
<mgrwt>
<rscale>  1 0.30000000E+03</rscale>
<asrwt>0</asrwt>
<pdfrwt beam="1">  1       21 0.10210279E-01 0.30000000E+03</pdfrwt>
<pdfrwt beam="2">0</pdfrwt>
<totfact> 0.82889758E+03</totfact>
</mgrwt>
</event>
<event>
 6    1  0.1273846E-001  0.3000000E+03  0.7818608E-02  0.1093470E+00
         21   -1    0    0  501  502  0.00000000000E+00  0.00000000000E+00  0.21556929833E+01  0.21556929833E+01  0.00000000000E+00 0. -1.
         13   -1    0    0    0    0 -0.00000000000E+00 -0.00000000000E+00 -0.10000000000E+04  0.10000000000E+04  0.00000000000E+00 0.  1.
    9000005    2    1    2  501    0  0.32176055274E+02 -0.38120713901E+01 -0.85753685695E+03  0.85815565491E+03  0.34404363823E+01 0.  0.
         13    1    3    3    0    0  0.16069268356E+02 -0.36018755074E+01 -0.44244496558E+03  0.44275133253E+03  0.00000000000E+00 0.  1.
          3    1    3    3  501    0  0.16106786918E+02 -0.21019588277E+00 -0.41509189137E+03  0.41540432238E+03  0.00000000000E+00 0.  1.
         -1    1    1    2    0  502 -0.32176055274E+02  0.38120713901E+01 -0.14030745007E+03  0.14400003808E+03  0.00000000000E+00 0. -1.
<mgrwt>
<rscale>  1 0.30000000E+03</rscale>
<asrwt>0</asrwt>
<pdfrwt beam="1">  1       21 0.78389001E-02 0.30000000E+03</pdfrwt>
<pdfrwt beam="2">0</pdfrwt>
<totfact> 0.13238287E+04</totfact>
</mgrwt>
</event>
<event>
 6    1  0.1273846E-001  0.3000000E+03  0.7818608E-02  0.1093470E+00
         21   -1    0    0  501  502  0.00000000000E+00  0.00000000000E+00  0.19715764906E+01  0.19715764906E+01  0.00000000000E+00 0. -1.
         13   -1    0    0    0    0 -0.00000000000E+00 -0.00000000000E+00 -0.10000000000E+04  0.10000000000E+04  0.00000000000E+00 0.  1.
    9000005    2    1    2  501    0 -0.30128471948E+02 -0.70717228958E+01 -0.14139150838E+03  0.14477583545E+03  0.32786892427E+01 0.  0.
         13    1    3    3    0    0 -0.14647829524E+02 -0.26407051264E+01 -0.74650413143E+02  0.76119750498E+02  0.00000000000E+00 0.  1.
          1    1    3    3  501    0 -0.15480642424E+02 -0.44310177694E+01 -0.66741095235E+02  0.68656084956E+02  0.00000000000E+00 0.  1.
         -1    1    1    2    0  502  0.30128471948E+02  0.70717228958E+01 -0.85663691513E+03  0.85719574104E+03  0.00000000000E+00 0. -1.
<mgrwt>
<rscale>  1 0.30000000E+03</rscale>
<asrwt>0</asrwt>
<pdfrwt beam="1">  1       21 0.71693842E-02 0.30000000E+03</pdfrwt>
<pdfrwt beam="2">0</pdfrwt>
<totfact> 0.15477020E+04</totfact>
</mgrwt>
</event>
<event>
 6    1  0.1273846E-001  0.3000000E+03  0.7818608E-02  0.1093470E+00
         21   -1    0    0  501  502  0.00000000000E+00  0.00000000000E+00  0.37438936032E+01  0.37438936032E+01  0.00000000000E+00 0. -1.
         13   -1    0    0    0    0 -0.00000000000E+00 -0.00000000000E+00 -0.10000000000E+04  0.10000000000E+04  0.00000000000E+00 0.  1.
    9000005    2    1    2  501    0  0.50725205953E+02 -0.27736760411E+01 -0.77756418205E+03  0.77922908880E+03  0.33430284944E+01 0.  0.
         13    1    3    3    0    0  0.43697495226E+02 -0.12395063063E+01 -0.67039530599E+03  0.67181907814E+03  0.00000000000E+00 0.  1.
          1    1    3    3  501    0  0.70277107276E+01 -0.15341697348E+01 -0.10716887606E+03  0.10741001066E+03  0.00000000000E+00 0.  1.
         -1    1    1    2    0  502 -0.50725205953E+02  0.27736760411E+01 -0.21869192435E+03  0.22451480480E+03  0.00000000000E+00 0. -1.
<mgrwt>
<rscale>  1 0.30000000E+03</rscale>
<asrwt>0</asrwt>
<pdfrwt beam="1">  1       21 0.13614187E-01 0.30000000E+03</pdfrwt>
<pdfrwt beam="2">0</pdfrwt>
<totfact> 0.49227477E+03</totfact>
</mgrwt>
</event>
<event>
 6    1  0.1273846E-001  0.3000000E+03  0.7818608E-02  0.1093470E+00
         21   -1    0    0  501  502  0.00000000000E+00  0.00000000000E+00  0.16871867757E+01  0.16871867757E+01  0.00000000000E+00 0. -1.
         13   -1    0    0    0    0 -0.00000000000E+00 -0.00000000000E+00 -0.10000000000E+04  0.10000000000E+04  0.00000000000E+00 0.  1.
    9000005    2    1    2  501    0 -0.29484798182E+02  0.15060871120E+02 -0.79513073670E+03  0.79582524424E+03  0.29576622450E+01 0.  0.
         13    1    3    3    0    0 -0.18989223503E+02  0.91457657202E+01 -0.53714132568E+03  0.53755468502E+03  0.00000000000E+00 0.  1.
          3    1    3    3  501    0 -0.10495574679E+02  0.59151054003E+01 -0.25798941102E+03  0.25827055922E+03  0.00000000000E+00 0.  1.
         -1    1    1    2    0  502  0.29484798182E+02 -0.15060871120E+02 -0.20318207652E+03  0.20586194253E+03  0.00000000000E+00 0. -1.
<mgrwt>
<rscale>  1 0.30000000E+03</rscale>
<asrwt>0</asrwt>
<pdfrwt beam="1">  1       21 0.61352376E-02 0.30000000E+03</pdfrwt>
<pdfrwt beam="2">0</pdfrwt>
<totfact> 0.20276661E+04</totfact>
</mgrwt>
</event>
<event>
 6    1  0.1273846E-001  0.3000000E+03  0.7818608E-02  0.1093470E+00
         21   -1    0    0  501  502  0.00000000000E+00  0.00000000000E+00  0.13806031197E+01  0.13806031197E+01  0.00000000000E+00 0. -1.
         13   -1    0    0    0    0 -0.00000000000E+00 -0.00000000000E+00 -0.10000000000E+04  0.10000000000E+04  0.00000000000E+00 0.  1.
    9000005    2    1    2  501    0 -0.13313034782E+02  0.33117652448E+02 -0.36317150140E+03  0.36493104214E+03  0.26665128368E+01 0.  0.
         13    1    3    3    0    0 -0.74230901664E+01  0.15187663306E+02 -0.17697443213E+03  0.17777996797E+03  0.00000000000E+00 0.  1.
          3    1    3    3  501    0 -0.58899446160E+01  0.17929989142E+02 -0.18619706926E+03  0.18715107416E+03  0.00000000000E+00 0.  1.
         -1    1    1    2    0  502  0.13313034782E+02 -0.33117652448E+02 -0.63544789548E+03  0.63644956098E+03  0.00000000000E+00 0. -1.
<mgrwt>
<rscale>  1 0.30000000E+03</rscale>
<asrwt>0</asrwt>
<pdfrwt beam="1">  1       21 0.50203856E-02 0.30000000E+03</pdfrwt>
<pdfrwt beam="2">0</pdfrwt>
<totfact> 0.28605531E+04</totfact>
</mgrwt>
</event>
<event>
 6    1  0.1273846E-001  0.3000000E+03  0.7818608E-02  0.1093470E+00
         21   -1    0    0  501  502  0.00000000000E+00  0.00000000000E+00  0.35442071071E+01  0.35442071071E+01  0.00000000000E+00 0. -1.
         13   -1    0    0    0    0 -0.00000000000E+00 -0.00000000000E+00 -0.10000000000E+04  0.10000000000E+04  0.00000000000E+00 0.  1.
    9000005    2    1    2  501    0 -0.43718822921E+02  0.39995590315E+02 -0.45566197007E+03  0.45951393081E+03  0.37734493620E+01 0.  0.
         13    1    3    3    0    0 -0.38230376757E+02  0.35047246723E+02 -0.38847992039E+03  0.39192667650E+03  0.00000000000E+00 0.  1.
          3    1    3    3  501    0 -0.54884461637E+01  0.49483435922E+01 -0.67182049685E+02  0.67587254313E+02  0.00000000000E+00 0.  1.
         -3    1    1    2    0  502  0.43718822921E+02 -0.39995590315E+02 -0.54079382282E+03  0.54403027629E+03  0.00000000000E+00 0. -1.
<mgrwt>
<rscale>  1 0.30000000E+03</rscale>
<asrwt>0</asrwt>
<pdfrwt beam="1">  1       21 0.12888053E-01 0.30000000E+03</pdfrwt>
<pdfrwt beam="2">0</pdfrwt>
<totfact> 0.54417682E+03</totfact>
</mgrwt>
</event>
<event>
 6    1  0.1273846E-001  0.3000000E+03  0.7818608E-02  0.1093470E+00
         21   -1    0    0  501  502  0.00000000000E+00  0.00000000000E+00  0.95166473099E+00  0.95166473099E+00  0.00000000000E+00 0. -1.
         13   -1    0    0    0    0 -0.00000000000E+00 -0.00000000000E+00 -0.10000000000E+04  0.10000000000E+04  0.00000000000E+00 0.  1.
    9000005    2    1    2  501    0 -0.15099069929E+02  0.26691238189E+02 -0.47647150206E+03  0.47747582888E+03  0.42036632208E+01 0.  0.
         13    1    3    3    0    0 -0.39849344788E+01  0.87571818488E+01 -0.17770781902E+03  0.17796807825E+03  0.00000000000E+00 0.  1.
          3    1    3    3  501    0 -0.11114135450E+02  0.17934056340E+02 -0.29876368304E+03  0.29950775063E+03  0.00000000000E+00 0.  1.
         -3    1    1    2    0  502  0.15099069929E+02 -0.26691238189E+02 -0.52257683321E+03  0.52347583585E+03  0.00000000000E+00 0. -1.
<mgrwt>
<rscale>  1 0.30000000E+03</rscale>
<asrwt>0</asrwt>
<pdfrwt beam="1">  1       21 0.34606063E-02 0.30000000E+03</pdfrwt>
<pdfrwt beam="2">0</pdfrwt>
<totfact> 0.53623180E+04</totfact>
</mgrwt>
</event>
<event>
 6    1  0.1273846E-001  0.3000000E+03  0.7818608E-02  0.1093470E+00
         21   -1    0    0  501  502  0.00000000000E+00  0.00000000000E+00  0.13569967592E+02  0.13569967592E+02  0.00000000000E+00 0. -1.
         13   -1    0    0    0    0 -0.00000000000E+00 -0.00000000000E+00 -0.10000000000E+04  0.10000000000E+04  0.00000000000E+00 0.  1.
    9000005    2    1    2  501    0 -0.35169983280E+02  0.21150754818E+02 -0.96749856837E+03  0.96837392259E+03  0.32081145640E+01 0.  0.
         13    1    3    3    0    0 -0.17496167577E+02  0.11248205829E+02 -0.52486502579E+03  0.52527700627E+03  0.00000000000E+00 0.  1.
          3    1    3    3  501    0 -0.17673815703E+02  0.99025489896E+01 -0.44263354258E+03  0.44309691632E+03  0.00000000000E+00 0.  1.
         -3    1    1    2    0  502  0.35169983280E+02 -0.21150754818E+02 -0.18931464039E+02  0.45196045003E+02  0.00000000000E+00 0. -1.
<mgrwt>
<rscale>  1 0.30000000E+03</rscale>
<asrwt>0</asrwt>
<pdfrwt beam="1">  1       21 0.49345441E-01 0.30000000E+03</pdfrwt>
<pdfrwt beam="2">0</pdfrwt>
<totfact> 0.38659869E+02</totfact>
</mgrwt>
</event>
<event>
 6    1  0.1273846E-001  0.3000000E+03  0.7818608E-02  0.1093470E+00
         21   -1    0    0  501  502  0.00000000000E+00  0.00000000000E+00  0.17027061165E+01  0.17027061165E+01  0.00000000000E+00 0. -1.
         13   -1    0    0    0    0 -0.00000000000E+00 -0.00000000000E+00 -0.10000000000E+04  0.10000000000E+04  0.00000000000E+00 0.  1.
    9000005    2    1    2  501    0 -0.37747639443E+02  0.12603952897E+02 -0.62682070918E+03  0.62810051541E+03  0.47235684034E+01 0.  0.
         13    1    3    3    0    0 -0.85487237310E+01  0.31145611607E+01 -0.17655271684E+03  0.17678699894E+03  0.00000000000E+00 0.  1.
          3    1    3    3  501    0 -0.29198915712E+02  0.94893917363E+01 -0.45026799233E+03  0.45131351648E+03  0.00000000000E+00 0.  1.
         -3    1    1    2    0  502  0.37747639443E+02 -0.12603952897E+02 -0.37147658471E+03  0.37360219070E+03  0.00000000000E+00 0. -1.
<mgrwt>
<rscale>  1 0.30000000E+03</rscale>
<asrwt>0</asrwt>
<pdfrwt beam="1">  1       21 0.61916717E-02 0.30000000E+03</pdfrwt>
<pdfrwt beam="2">0</pdfrwt>
<totfact> 0.19958620E+04</totfact>
</mgrwt>
</event>
<event>
 6    1  0.1273846E-001  0.3000000E+03  0.7818608E-02  0.1093470E+00
         21   -1    0    0  501  502  0.00000000000E+00  0.00000000000E+00  0.14165863777E+01  0.14165863777E+01  0.00000000000E+00 0. -1.
         13   -1    0    0    0    0 -0.00000000000E+00 -0.00000000000E+00 -0.10000000000E+04  0.10000000000E+04  0.00000000000E+00 0.  1.
    9000005    2    1    2  501    0 -0.30658303684E+02 -0.13966021429E+02 -0.72142899790E+03  0.72222211742E+03  0.31633128014E+01 0.  0.
         13    1    3    3    0    0 -0.12336364372E+02 -0.46160547914E+01 -0.25552281440E+03  0.25586207715E+03  0.00000000000E+00 0.  1.
          1    1    3    3  501    0 -0.18321939312E+02 -0.93499666372E+01 -0.46590618350E+03  0.46636004027E+03  0.00000000000E+00 0.  1.
         -1    1    1    2    0  502  0.30658303684E+02  0.13966021429E+02 -0.27715441572E+03  0.27919446895E+03  0.00000000000E+00 0. -1.
<mgrwt>
<rscale>  1 0.30000000E+03</rscale>
<asrwt>0</asrwt>
<pdfrwt beam="1">  1       21 0.51512341E-02 0.30000000E+03</pdfrwt>
<pdfrwt beam="2">0</pdfrwt>
<totfact> 0.27376908E+04</totfact>
</mgrwt>
</event>
<event>
 6    1  0.1273846E-001  0.3000000E+03  0.7818608E-02  0.1093470E+00
         21   -1    0    0  501  502  0.00000000000E+00  0.00000000000E+00  0.25093411992E+01  0.25093411992E+01  0.00000000000E+00 0. -1.
         13   -1    0    0    0    0 -0.00000000000E+00 -0.00000000000E+00 -0.10000000000E+04  0.10000000000E+04  0.00000000000E+00 0.  1.
    9000005    2    1    2  501    0 -0.32756716212E+02 -0.35583930675E+00 -0.87778096852E+03  0.87839834642E+03  0.33312481406E+01 0.  0.
         13    1    3    3    0    0 -0.51842693636E+01  0.35983978753E+00 -0.11125402226E+03  0.11137532762E+03  0.00000000000E+00 0.  1.
          3    1    3    3  501    0 -0.27572446849E+02 -0.71567909428E+00 -0.76652694626E+03  0.76702301880E+03  0.00000000000E+00 0.  1.
         -1    1    1    2    0  502  0.32756716212E+02  0.35583930675E+00 -0.11970969028E+03  0.12411099478E+03  0.00000000000E+00 0. -1.
<mgrwt>
<rscale>  1 0.30000000E+03</rscale>
<asrwt>0</asrwt>
<pdfrwt beam="1">  1       21 0.91248963E-02 0.30000000E+03</pdfrwt>
<pdfrwt beam="2">0</pdfrwt>
<totfact> 0.10127599E+04</totfact>
</mgrwt>
</event>
<event>
 6    1  0.1273846E-001  0.3000000E+03  0.7818608E-02  0.1093470E+00
         21   -1    0    0  501  502  0.00000000000E+00  0.00000000000E+00  0.12821961218E+01  0.12821961218E+01  0.00000000000E+00 0. -1.
         13   -1    0    0    0    0 -0.00000000000E+00 -0.00000000000E+00 -0.10000000000E+04  0.10000000000E+04  0.00000000000E+00 0.  1.
    9000005    2    1    2  501    0  0.27991763322E+02  0.11340396998E+02 -0.76735155286E+03  0.76795306050E+03  0.33695760859E+01 0.  0.
         13    1    3    3    0    0  0.21857326101E+02  0.76873613485E+01 -0.60912486368E+03  0.60956536793E+03  0.00000000000E+00 0.  1.
          1    1    3    3  501    0  0.61344372203E+01  0.36530356497E+01 -0.15822668918E+03  0.15838769257E+03  0.00000000000E+00 0.  1.
         -1    1    1    2    0  502 -0.27991763322E+02 -0.11340396998E+02 -0.23136625102E+03  0.23332913562E+03  0.00000000000E+00 0. -1.
<mgrwt>
<rscale>  1 0.30000000E+03</rscale>
<asrwt>0</asrwt>
<pdfrwt beam="1">  1       21 0.46625412E-02 0.30000000E+03</pdfrwt>
<pdfrwt beam="2">0</pdfrwt>
<totfact> 0.32442664E+04</totfact>
</mgrwt>
</event>
<event>
 6    1  0.1273846E-001  0.3000000E+03  0.7818608E-02  0.1093470E+00
         21   -1    0    0  501  502  0.00000000000E+00  0.00000000000E+00  0.98574212825E+00  0.98574212825E+00  0.00000000000E+00 0. -1.
         13   -1    0    0    0    0 -0.00000000000E+00 -0.00000000000E+00 -0.10000000000E+04  0.10000000000E+04  0.00000000000E+00 0.  1.
    9000005    2    1    2  501    0 -0.74025725168E+01 -0.29532726329E+02 -0.61637878175E+03  0.61714086775E+03  0.36149749249E+01 0.  0.
         13    1    3    3    0    0 -0.34655620823E+00 -0.78349840733E+01 -0.15515885304E+03  0.15535693340E+03  0.00000000000E+00 0.  1.
          1    1    3    3  501    0 -0.70560163086E+01 -0.21697742255E+02 -0.46121992871E+03  0.46178393435E+03  0.00000000000E+00 0.  1.
         -3    1    1    2    0  502  0.74025725168E+01  0.29532726329E+02 -0.38263547612E+03  0.38384487438E+03  0.00000000000E+00 0. -1.
<mgrwt>
<rscale>  1 0.30000000E+03</rscale>
<asrwt>0</asrwt>
<pdfrwt beam="1">  1       21 0.35845244E-02 0.30000000E+03</pdfrwt>
<pdfrwt beam="2">0</pdfrwt>
<totfact> 0.50554195E+04</totfact>
</mgrwt>
</event>
<event>
 6    1  0.1273846E-001  0.3000000E+03  0.7818608E-02  0.1093470E+00
         21   -1    0    0  501  502  0.00000000000E+00  0.00000000000E+00  0.11266676399E+01  0.11266676399E+01  0.00000000000E+00 0. -1.
         13   -1    0    0    0    0 -0.00000000000E+00 -0.00000000000E+00 -0.10000000000E+04  0.10000000000E+04  0.00000000000E+00 0.  1.
    9000005    2    1    2  501    0 -0.85149681668E+00 -0.33391006851E+02 -0.53650441563E+03  0.53755283367E+03  0.32212743576E+01 0.  0.
         13    1    3    3    0    0  0.10504731029E+01 -0.79824972784E+01 -0.13806378210E+03  0.13829834303E+03  0.00000000000E+00 0.  1.
          1    1    3    3  501    0 -0.19019699195E+01 -0.25408509573E+02 -0.39844063353E+03  0.39925449064E+03  0.00000000000E+00 0.  1.
         -3    1    1    2    0  502  0.85149681668E+00  0.33391006851E+02 -0.46236891673E+03  0.46357383397E+03  0.00000000000E+00 0. -1.
<mgrwt>
<rscale>  1 0.30000000E+03</rscale>
<asrwt>0</asrwt>
<pdfrwt beam="1">  1       21 0.40969819E-02 0.30000000E+03</pdfrwt>
<pdfrwt beam="2">0</pdfrwt>
<totfact> 0.40383750E+04</totfact>
</mgrwt>
</event>
<event>
 6    1  0.1273846E-001  0.3000000E+03  0.7818608E-02  0.1093470E+00
         21   -1    0    0  501  502  0.00000000000E+00  0.00000000000E+00  0.18071053069E+01  0.18071053069E+01  0.00000000000E+00 0. -1.
         13   -1    0    0    0    0 -0.00000000000E+00 -0.00000000000E+00 -0.10000000000E+04  0.10000000000E+04  0.00000000000E+00 0.  1.
    9000005    2    1    2  501    0  0.34754384266E+02 -0.18055237138E+02 -0.69223392034E+03  0.69335167449E+03  0.38581386117E+01 0.  0.
         13    1    3    3    0    0  0.14114435419E+02 -0.63619026726E+01 -0.30348525885E+03  0.30387989969E+03  0.00000000000E+00 0.  1.
          3    1    3    3  501    0  0.20639948847E+02 -0.11693334465E+02 -0.38874866149E+03  0.38947177481E+03  0.00000000000E+00 0.  1.
         -1    1    1    2    0  502 -0.34754384266E+02  0.18055237138E+02 -0.30595897435E+03  0.30845543081E+03  0.00000000000E+00 0. -1.
<mgrwt>
<rscale>  1 0.30000000E+03</rscale>
<asrwt>0</asrwt>
<pdfrwt beam="1">  1       21 0.65713059E-02 0.30000000E+03</pdfrwt>
<pdfrwt beam="2">0</pdfrwt>
<totfact> 0.18006552E+04</totfact>
</mgrwt>
</event>
<event>
 6    1  0.1273846E-001  0.3000000E+03  0.7818608E-02  0.1093470E+00
         21   -1    0    0  501  502  0.00000000000E+00  0.00000000000E+00  0.10660018721E+01  0.10660018721E+01  0.00000000000E+00 0. -1.
         13   -1    0    0    0    0 -0.00000000000E+00 -0.00000000000E+00 -0.10000000000E+04  0.10000000000E+04  0.00000000000E+00 0.  1.
    9000005    2    1    2  501    0 -0.11284057890E+02 -0.28670466341E+02 -0.33863322746E+03  0.34004676361E+03  0.31643485448E+01 0.  0.
         13    1    3    3    0    0 -0.11336717142E+02 -0.27668617302E+02 -0.32285764527E+03  0.32423931385E+03  0.00000000000E+00 0.  1.
          3    1    3    3  501    0  0.52659252350E-01 -0.10018490383E+01 -0.15775582190E+02  0.15807449760E+02  0.00000000000E+00 0.  1.
         -3    1    1    2    0  502  0.11284057890E+02  0.28670466341E+02 -0.66030077067E+03  0.66101923826E+03  0.00000000000E+00 0. -1.
<mgrwt>
<rscale>  1 0.30000000E+03</rscale>
<asrwt>0</asrwt>
<pdfrwt beam="1">  1       21 0.38763786E-02 0.30000000E+03</pdfrwt>
<pdfrwt beam="2">0</pdfrwt>
<totfact> 0.44328266E+04</totfact>
</mgrwt>
</event>
<event>
 6    1  0.1273846E-001  0.3000000E+03  0.7818608E-02  0.1093470E+00
         21   -1    0    0  501  502  0.00000000000E+00  0.00000000000E+00  0.25923854077E+01  0.25923854077E+01  0.00000000000E+00 0. -1.
         13   -1    0    0    0    0 -0.00000000000E+00 -0.00000000000E+00 -0.10000000000E+04  0.10000000000E+04  0.00000000000E+00 0.  1.
    9000005    2    1    2  501    0 -0.34694421728E+02 -0.15194252756E+01 -0.86511920360E+03  0.86582164572E+03  0.31423248347E+01 0.  0.
         13    1    3    3    0    0 -0.15320695665E+02 -0.18943175758E+01 -0.35964647425E+03  0.35997763624E+03  0.00000000000E+00 0.  1.
          3    1    3    3  501    0 -0.19373726063E+02  0.37489230016E+00 -0.50547272936E+03  0.50584400948E+03  0.00000000000E+00 0.  1.
         -1    1    1    2    0  502  0.34694421728E+02  0.15194252756E+01 -0.13228841099E+03  0.13677073969E+03  0.00000000000E+00 0. -1.
<mgrwt>
<rscale>  1 0.30000000E+03</rscale>
<asrwt>0</asrwt>
<pdfrwt beam="1">  1       21 0.94268759E-02 0.30000000E+03</pdfrwt>
<pdfrwt beam="2">0</pdfrwt>
<totfact> 0.95583346E+03</totfact>
</mgrwt>
</event>
<event>
 6    1  0.1273846E-001  0.3000000E+03  0.7818608E-02  0.1093470E+00
         21   -1    0    0  501  502  0.00000000000E+00  0.00000000000E+00  0.17609542912E+01  0.17609542912E+01  0.00000000000E+00 0. -1.
         13   -1    0    0    0    0 -0.00000000000E+00 -0.00000000000E+00 -0.10000000000E+04  0.10000000000E+04  0.00000000000E+00 0.  1.
    9000005    2    1    2  501    0 -0.38014370130E+02  0.86663319430E+01 -0.68287200281E+03  0.68399284797E+03  0.34418326590E+01 0.  0.
         13    1    3    3    0    0 -0.23539314288E+02  0.37727817399E+01 -0.40494434782E+03  0.40564548318E+03  0.00000000000E+00 0.  1.
          1    1    3    3  501    0 -0.14475055842E+02  0.48935502032E+01 -0.27792765499E+03  0.27834736479E+03  0.00000000000E+00 0.  1.
         -3    1    1    2    0  502  0.38014370130E+02 -0.86663319430E+01 -0.31536704290E+03  0.31776810632E+03  0.00000000000E+00 0. -1.
<mgrwt>
<rscale>  1 0.30000000E+03</rscale>
<asrwt>0</asrwt>
<pdfrwt beam="1">  1       21 0.64034837E-02 0.30000000E+03</pdfrwt>
<pdfrwt beam="2">0</pdfrwt>
<totfact> 0.18831341E+04</totfact>
</mgrwt>
</event>
<event>
 6    1  0.1273846E-001  0.3000000E+03  0.7818608E-02  0.1093470E+00
         21   -1    0    0  501  502  0.00000000000E+00  0.00000000000E+00  0.12518533513E+01  0.12518533513E+01  0.00000000000E+00 0. -1.
         13   -1    0    0    0    0 -0.00000000000E+00 -0.00000000000E+00 -0.10000000000E+04  0.10000000000E+04  0.00000000000E+00 0.  1.
    9000005    2    1    2  501    0 -0.11550730888E+02 -0.29241828400E+02 -0.72766060924E+03  0.72834718712E+03  0.33404841591E+01 0.  0.
         13    1    3    3    0    0 -0.57337221328E+00 -0.28761089320E+01 -0.51146500785E+02  0.51230511424E+02  0.00000000000E+00 0.  1.
          3    1    3    3  501    0 -0.10977358675E+02 -0.26365719468E+02 -0.67651410845E+03  0.67711667569E+03  0.00000000000E+00 0.  1.
         -3    1    1    2    0  502  0.11550730888E+02  0.29241828400E+02 -0.27108753741E+03  0.27290466623E+03  0.00000000000E+00 0. -1.
<mgrwt>
<rscale>  1 0.30000000E+03</rscale>
<asrwt>0</asrwt>
<pdfrwt beam="1">  1       21 0.45522036E-02 0.30000000E+03</pdfrwt>
<pdfrwt beam="2">0</pdfrwt>
<totfact> 0.33790017E+04</totfact>
</mgrwt>
</event>
<event>
 6    1  0.1273846E-001  0.3000000E+03  0.7818608E-02  0.1093470E+00
         21   -1    0    0  501  502  0.00000000000E+00  0.00000000000E+00  0.16448991869E+01  0.16448991869E+01  0.00000000000E+00 0. -1.
         13   -1    0    0    0    0 -0.00000000000E+00 -0.00000000000E+00 -0.10000000000E+04  0.10000000000E+04  0.00000000000E+00 0.  1.
    9000005    2    1    2  501    0 -0.86420753270E+01 -0.36640352193E+02 -0.68433737108E+03  0.68537865777E+03  0.30110117419E+01 0.  0.
         13    1    3    3    0    0 -0.28219983551E+01 -0.11635875289E+02 -0.19301598966E+03  0.19338699421E+03  0.00000000000E+00 0.  1.
          1    1    3    3  501    0 -0.58200769719E+01 -0.25004476904E+02 -0.49132138143E+03  0.49199166356E+03  0.00000000000E+00 0.  1.
         -3    1    1    2    0  502  0.86420753270E+01  0.36640352193E+02 -0.31401772973E+03  0.31626624142E+03  0.00000000000E+00 0. -1.
<mgrwt>
<rscale>  1 0.30000000E+03</rscale>
<asrwt>0</asrwt>
<pdfrwt beam="1">  1       21 0.59814642E-02 0.30000000E+03</pdfrwt>
<pdfrwt beam="2">0</pdfrwt>
<totfact> 0.21184401E+04</totfact>
</mgrwt>
</event>
<event>
 6    1  0.1273846E-001  0.3000000E+03  0.7818608E-02  0.1093470E+00
         21   -1    0    0  501  502  0.00000000000E+00  0.00000000000E+00  0.26501410294E+01  0.26501410294E+01  0.00000000000E+00 0. -1.
         13   -1    0    0    0    0 -0.00000000000E+00 -0.00000000000E+00 -0.10000000000E+04  0.10000000000E+04  0.00000000000E+00 0.  1.
    9000005    2    1    2  501    0 -0.24716793775E+01  0.39238901261E+02 -0.82157258166E+03  0.82252948205E+03  0.52384483577E+01 0.  0.
         13    1    3    3    0    0 -0.11496679834E+01  0.73214875700E+01 -0.11847297147E+03  0.11870455293E+03  0.00000000000E+00 0.  1.
          1    1    3    3  501    0 -0.13220113942E+01  0.31917413691E+02 -0.70309961019E+03  0.70382492913E+03  0.00000000000E+00 0.  1.
         -1    1    1    2    0  502  0.24716793775E+01 -0.39238901261E+02 -0.17577727731E+03  0.18012065898E+03  0.00000000000E+00 0. -1.
<mgrwt>
<rscale>  1 0.30000000E+03</rscale>
<asrwt>0</asrwt>
<pdfrwt beam="1">  1       21 0.96368968E-02 0.30000000E+03</pdfrwt>
<pdfrwt beam="2">0</pdfrwt>
<totfact> 0.91903367E+03</totfact>
</mgrwt>
</event>
<event>
 6    1  0.1273846E-001  0.3000000E+03  0.7818608E-02  0.1093470E+00
         21   -1    0    0  501  502  0.00000000000E+00  0.00000000000E+00  0.13884960262E+01  0.13884960262E+01  0.00000000000E+00 0. -1.
         13   -1    0    0    0    0 -0.00000000000E+00 -0.00000000000E+00 -0.10000000000E+04  0.10000000000E+04  0.00000000000E+00 0.  1.
    9000005    2    1    2  501    0  0.22314615307E+02  0.21756182919E+02 -0.77298102408E+03  0.77361583083E+03  0.32429274419E+01 0.  0.
         13    1    3    3    0    0  0.11297954624E+02  0.12071061873E+02 -0.37406043830E+03  0.37442564792E+03  0.00000000000E+00 0.  1.
          1    1    3    3  501    0  0.11016660683E+02  0.96851210459E+01 -0.39892058577E+03  0.39919018291E+03  0.00000000000E+00 0.  1.
         -3    1    1    2    0  502 -0.22314615307E+02 -0.21756182919E+02 -0.22563047990E+03  0.22777266520E+03  0.00000000000E+00 0. -1.
<mgrwt>
<rscale>  1 0.30000000E+03</rscale>
<asrwt>0</asrwt>
<pdfrwt beam="1">  1       21 0.50490871E-02 0.30000000E+03</pdfrwt>
<pdfrwt beam="2">0</pdfrwt>
<totfact> 0.28328789E+04</totfact>
</mgrwt>
</event>
<event>
 6    1  0.1273846E-001  0.3000000E+03  0.7818608E-02  0.1093470E+00
         21   -1    0    0  501  502  0.00000000000E+00  0.00000000000E+00  0.12533695310E+01  0.12533695310E+01  0.00000000000E+00 0. -1.
         13   -1    0    0    0    0 -0.00000000000E+00 -0.00000000000E+00 -0.10000000000E+04  0.10000000000E+04  0.00000000000E+00 0.  1.
    9000005    2    1    2  501    0 -0.68476581386E+01 -0.33153839248E+02 -0.64266601343E+03  0.64356709175E+03  0.35957325164E+01 0.  0.
         13    1    3    3    0    0 -0.35274098803E+01 -0.96141570429E+01 -0.20622423976E+03  0.20647835649E+03  0.00000000000E+00 0.  1.
          3    1    3    3  501    0 -0.33202482583E+01 -0.23539682205E+02 -0.43644177367E+03  0.43708873526E+03  0.00000000000E+00 0.  1.
         -3    1    1    2    0  502  0.68476581386E+01  0.33153839248E+02 -0.35608061704E+03  0.35768627778E+03  0.00000000000E+00 0. -1.
<mgrwt>
<rscale>  1 0.30000000E+03</rscale>
<asrwt>0</asrwt>
<pdfrwt beam="1">  1       21 0.45577170E-02 0.30000000E+03</pdfrwt>
<pdfrwt beam="2">0</pdfrwt>
<totfact> 0.33720623E+04</totfact>
</mgrwt>
</event>
<event>
 6    1  0.1273846E-001  0.3000000E+03  0.7818608E-02  0.1093470E+00
         21   -1    0    0  501  502  0.00000000000E+00  0.00000000000E+00  0.90266534512E+01  0.90266534512E+01  0.00000000000E+00 0. -1.
         13   -1    0    0    0    0 -0.00000000000E+00 -0.00000000000E+00 -0.10000000000E+04  0.10000000000E+04  0.00000000000E+00 0.  1.
    9000005    2    1    2  501    0 -0.40043569945E+02 -0.28174585211E+02 -0.92781927564E+03  0.92911588185E+03  0.32278333680E+01 0.  0.
         13    1    3    3    0    0 -0.63621722530E+01 -0.36415607162E+01 -0.12214887752E+03  0.12236864990E+03  0.00000000000E+00 0.  1.
          3    1    3    3  501    0 -0.33681397692E+02 -0.24533024495E+02 -0.80567039812E+03  0.80674723194E+03  0.00000000000E+00 0.  1.
         -1    1    1    2    0  502  0.40043569945E+02  0.28174585211E+02 -0.63154070909E+02  0.79910771603E+02  0.00000000000E+00 0. -1.
<mgrwt>
<rscale>  1 0.30000000E+03</rscale>
<asrwt>0</asrwt>
<pdfrwt beam="1">  1       21 0.32824264E-01 0.30000000E+03</pdfrwt>
<pdfrwt beam="2">0</pdfrwt>
<totfact> 0.90700501E+02</totfact>
</mgrwt>
</event>
<event>
 6    1  0.1273846E-001  0.3000000E+03  0.7818608E-02  0.1093470E+00
         21   -1    0    0  501  502  0.00000000000E+00  0.00000000000E+00  0.11231869491E+01  0.11231869491E+01  0.00000000000E+00 0. -1.
         13   -1    0    0    0    0 -0.00000000000E+00 -0.00000000000E+00 -0.10000000000E+04  0.10000000000E+04  0.00000000000E+00 0.  1.
    9000005    2    1    2  501    0  0.23462762088E+02 -0.18884968566E+02 -0.71636769409E+03  0.71701309290E+03  0.42378079976E+01 0.  0.
         13    1    3    3    0    0  0.10976584416E+02 -0.65094117497E+01 -0.27692636184E+03  0.27722025130E+03  0.00000000000E+00 0.  1.
          3    1    3    3  501    0  0.12486177673E+02 -0.12375556816E+02 -0.43944133225E+03  0.43979284161E+03  0.00000000000E+00 0.  1.
         -3    1    1    2    0  502 -0.23462762088E+02  0.18884968566E+02 -0.28250911896E+03  0.28411009404E+03  0.00000000000E+00 0. -1.
<mgrwt>
<rscale>  1 0.30000000E+03</rscale>
<asrwt>0</asrwt>
<pdfrwt beam="1">  1       21 0.40843248E-02 0.30000000E+03</pdfrwt>
<pdfrwt beam="2">0</pdfrwt>
<totfact> 0.40594976E+04</totfact>
</mgrwt>
</event>
<event>
 6    1  0.1273846E-001  0.3000000E+03  0.7818608E-02  0.1093470E+00
         21   -1    0    0  501  502  0.00000000000E+00  0.00000000000E+00  0.67105549146E+01  0.67105549146E+01  0.00000000000E+00 0. -1.
         13   -1    0    0    0    0 -0.00000000000E+00 -0.00000000000E+00 -0.10000000000E+04  0.10000000000E+04  0.00000000000E+00 0.  1.
    9000005    2    1    2  501    0  0.56206466613E+02 -0.17217712278E+02 -0.84661059339E+03  0.84869061301E+03  0.84049547074E+01 0.  0.
         13    1    3    3    0    0  0.51167848314E+02 -0.18010135086E+02 -0.76502486289E+03  0.76694560074E+03  0.00000000000E+00 0.  1.
          1    1    3    3  501    0  0.50386182993E+01  0.79242280805E+00 -0.81585730510E+02  0.81745012270E+02  0.00000000000E+00 0.  1.
         -1    1    1    2    0  502 -0.56206466613E+02  0.17217712278E+02 -0.14667885169E+03  0.15801994190E+03  0.00000000000E+00 0. -1.
<mgrwt>
<rscale>  1 0.30000000E+03</rscale>
<asrwt>0</asrwt>
<pdfrwt beam="1">  1       21 0.24402069E-01 0.30000000E+03</pdfrwt>
<pdfrwt beam="2">0</pdfrwt>
<totfact> 0.16351283E+03</totfact>
</mgrwt>
</event>
<event>
 6    1  0.1273846E-001  0.3000000E+03  0.7818608E-02  0.1093470E+00
         21   -1    0    0  501  502  0.00000000000E+00  0.00000000000E+00  0.36080874168E+01  0.36080874168E+01  0.00000000000E+00 0. -1.
         13   -1    0    0    0    0 -0.00000000000E+00 -0.00000000000E+00 -0.10000000000E+04  0.10000000000E+04  0.00000000000E+00 0.  1.
    9000005    2    1    2  501    0 -0.24439020107E+02 -0.39373131564E+02 -0.81721756126E+03  0.81853794567E+03  0.35095415941E+01 0.  0.
         13    1    3    3    0    0 -0.51261682669E+01 -0.10009989202E+02 -0.17794276187E+03  0.17829779580E+03  0.00000000000E+00 0.  1.
          1    1    3    3  501    0 -0.19312851840E+02 -0.29363142362E+02 -0.63927479939E+03  0.64024014987E+03  0.00000000000E+00 0.  1.
         -3    1    1    2    0  502  0.24439020107E+02  0.39373131564E+02 -0.17917435133E+03  0.18507014175E+03  0.00000000000E+00 0. -1.
<mgrwt>
<rscale>  1 0.30000000E+03</rscale>
<asrwt>0</asrwt>
<pdfrwt beam="1">  1       21 0.13120346E-01 0.30000000E+03</pdfrwt>
<pdfrwt beam="2">0</pdfrwt>
<totfact> 0.52671120E+03</totfact>
</mgrwt>
</event>
<event>
 6    1  0.1273846E-001  0.3000000E+03  0.7818608E-02  0.1093470E+00
         21   -1    0    0  501  502  0.00000000000E+00  0.00000000000E+00  0.19127853971E+01  0.19127853971E+01  0.00000000000E+00 0. -1.
         13   -1    0    0    0    0 -0.00000000000E+00 -0.00000000000E+00 -0.10000000000E+04  0.10000000000E+04  0.00000000000E+00 0.  1.
    9000005    2    1    2  501    0  0.23842067502E+01  0.37133828827E+02 -0.76119081464E+03  0.76211180542E+03  0.42827532051E+01 0.  0.
         13    1    3    3    0    0  0.34445597637E+01  0.20617334646E+02 -0.42058122582E+03  0.42110035264E+03  0.00000000000E+00 0.  1.
          3    1    3    3  501    0 -0.10603530135E+01  0.16516494181E+02 -0.34060958882E+03  0.34101145277E+03  0.00000000000E+00 0.  1.
         -1    1    1    2    0  502 -0.23842067502E+01 -0.37133828827E+02 -0.23689639996E+03  0.23980097998E+03  0.00000000000E+00 0. -1.
<mgrwt>
<rscale>  1 0.30000000E+03</rscale>
<asrwt>0</asrwt>
<pdfrwt beam="1">  1       21 0.69555979E-02 0.30000000E+03</pdfrwt>
<pdfrwt beam="2">0</pdfrwt>
<totfact> 0.16314922E+04</totfact>
</mgrwt>
</event>
<event>
 6    1  0.1273846E-001  0.3000000E+03  0.7818608E-02  0.1093470E+00
         21   -1    0    0  501  502  0.00000000000E+00  0.00000000000E+00  0.98545005376E+00  0.98545005376E+00  0.00000000000E+00 0. -1.
         13   -1    0    0    0    0 -0.00000000000E+00 -0.00000000000E+00 -0.10000000000E+04  0.10000000000E+04  0.00000000000E+00 0.  1.
    9000005    2    1    2  501    0 -0.29800038855E+02 -0.95425779267E+01 -0.51639535098E+03  0.51735295081E+03  0.32884789622E+01 0.  0.
         13    1    3    3    0    0 -0.14178574192E+02 -0.29808713579E+01 -0.22666168118E+03  0.22712427276E+03  0.00000000000E+00 0.  1.
          3    1    3    3  501    0 -0.15621464663E+02 -0.65617065688E+01 -0.28973366980E+03  0.29022867805E+03  0.00000000000E+00 0.  1.
         -3    1    1    2    0  502  0.29800038855E+02  0.95425779267E+01 -0.48261919897E+03  0.48363249924E+03  0.00000000000E+00 0. -1.
<mgrwt>
<rscale>  1 0.30000000E+03</rscale>
<asrwt>0</asrwt>
<pdfrwt beam="1">  1       21 0.35834623E-02 0.30000000E+03</pdfrwt>
<pdfrwt beam="2">0</pdfrwt>
<totfact> 0.50579321E+04</totfact>
</mgrwt>
</event>
<event>
 6    1  0.1273846E-001  0.3000000E+03  0.7818608E-02  0.1093470E+00
         21   -1    0    0  501  502  0.00000000000E+00  0.00000000000E+00  0.46096985463E+01  0.46096985463E+01  0.00000000000E+00 0. -1.
         13   -1    0    0    0    0 -0.00000000000E+00 -0.00000000000E+00 -0.10000000000E+04  0.10000000000E+04  0.00000000000E+00 0.  1.
    9000005    2    1    2  501    0 -0.34140823341E+02  0.34175832854E+02 -0.85053521691E+03  0.85191202702E+03  0.32191951240E+01 0.  0.
         13    1    3    3    0    0 -0.23952845722E+02  0.25714773923E+02 -0.63057949269E+03  0.63155798230E+03  0.00000000000E+00 0.  1.
          1    1    3    3  501    0 -0.10187977619E+02  0.84610589308E+01 -0.21995572422E+03  0.22035404472E+03  0.00000000000E+00 0.  1.
         -1    1    1    2    0  502  0.34140823341E+02 -0.34175832854E+02 -0.14485508455E+03  0.15269767152E+03  0.00000000000E+00 0. -1.
<mgrwt>
<rscale>  1 0.30000000E+03</rscale>
<asrwt>0</asrwt>
<pdfrwt beam="1">  1       21 0.16762576E-01 0.30000000E+03</pdfrwt>
<pdfrwt beam="2">0</pdfrwt>
<totfact> 0.33485246E+03</totfact>
</mgrwt>
</event>
<event>
 6    1  0.1273846E-001  0.3000000E+03  0.7818608E-02  0.1093470E+00
         21   -1    0    0  501  502  0.00000000000E+00  0.00000000000E+00  0.10226276124E+01  0.10226276124E+01  0.00000000000E+00 0. -1.
         13   -1    0    0    0    0 -0.00000000000E+00 -0.00000000000E+00 -0.10000000000E+04  0.10000000000E+04  0.00000000000E+00 0.  1.
    9000005    2    1    2  501    0  0.13870730946E+02  0.27282966053E+02 -0.64228099321E+03  0.64301555459E+03  0.27151051170E+01 0.  0.
         13    1    3    3    0    0  0.84007584967E+01  0.18802136999E+02 -0.41508465053E+03  0.41559518790E+03  0.00000000000E+00 0.  1.
          3    1    3    3  501    0  0.54699724494E+01  0.84808290542E+01 -0.22719634268E+03  0.22742036670E+03  0.00000000000E+00 0.  1.
         -1    1    1    2    0  502 -0.13870730946E+02 -0.27282966053E+02 -0.35669637918E+03  0.35800707302E+03  0.00000000000E+00 0. -1.
<mgrwt>
<rscale>  1 0.30000000E+03</rscale>
<asrwt>0</asrwt>
<pdfrwt beam="1">  1       21 0.37186537E-02 0.30000000E+03</pdfrwt>
<pdfrwt beam="2">0</pdfrwt>
<totfact> 0.47532494E+04</totfact>
</mgrwt>
</event>
<event>
 6    1  0.1273846E-001  0.3000000E+03  0.7818608E-02  0.1093470E+00
         21   -1    0    0  501  502  0.00000000000E+00  0.00000000000E+00  0.14639514011E+01  0.14639514011E+01  0.00000000000E+00 0. -1.
         13   -1    0    0    0    0 -0.00000000000E+00 -0.00000000000E+00 -0.10000000000E+04  0.10000000000E+04  0.00000000000E+00 0.  1.
    9000005    2    1    2  501    0 -0.34880094912E+02  0.18203199640E+01 -0.70253694586E+03  0.70341126578E+03  0.30518743445E+01 0.  0.
         13    1    3    3    0    0 -0.32532696948E+02  0.11461994617E+01 -0.66338630397E+03  0.66418452138E+03  0.00000000000E+00 0.  1.
          3    1    3    3  501    0 -0.23473979634E+01  0.67412050231E+00 -0.39150641888E+02  0.39226744396E+02  0.00000000000E+00 0.  1.
         -3    1    1    2    0  502  0.34880094912E+02 -0.18203199640E+01 -0.29599910274E+03  0.29805268562E+03  0.00000000000E+00 0. -1.
<mgrwt>
<rscale>  1 0.30000000E+03</rscale>
<asrwt>0</asrwt>
<pdfrwt beam="1">  1       21 0.53234709E-02 0.30000000E+03</pdfrwt>
<pdfrwt beam="2">0</pdfrwt>
<totfact> 0.25880507E+04</totfact>
</mgrwt>
</event>
<event>
 6    1  0.1273846E-001  0.3000000E+03  0.7818608E-02  0.1093470E+00
         21   -1    0    0  501  502  0.00000000000E+00  0.00000000000E+00  0.21798873155E+01  0.21798873155E+01  0.00000000000E+00 0. -1.
         13   -1    0    0    0    0 -0.00000000000E+00 -0.00000000000E+00 -0.10000000000E+04  0.10000000000E+04  0.00000000000E+00 0.  1.
    9000005    2    1    2  501    0  0.40159809398E+02  0.17713504608E+02 -0.66849724639E+03  0.66994483678E+03  0.33071691494E+01 0.  0.
         13    1    3    3    0    0  0.38722092913E+02  0.17645467103E+02 -0.64225457742E+03  0.64366272629E+03  0.00000000000E+00 0.  1.
          3    1    3    3  501    0  0.14377164851E+01  0.68037504958E-01 -0.26242668966E+02  0.26282110498E+02  0.00000000000E+00 0.  1.
         -3    1    1    2    0  502 -0.40159809398E+02 -0.17713504608E+02 -0.32932286630E+03  0.33223505053E+03  0.00000000000E+00 0. -1.
<mgrwt>
<rscale>  1 0.30000000E+03</rscale>
<asrwt>0</asrwt>
<pdfrwt beam="1">  1       21 0.79268797E-02 0.30000000E+03</pdfrwt>
<pdfrwt beam="2">0</pdfrwt>
<totfact> 0.12981501E+04</totfact>
</mgrwt>
</event>
<event>
 6    1  0.1273846E-001  0.3000000E+03  0.7818608E-02  0.1093470E+00
         21   -1    0    0  501  502  0.00000000000E+00  0.00000000000E+00  0.14600650956E+01  0.14600650956E+01  0.00000000000E+00 0. -1.
         13   -1    0    0    0    0 -0.00000000000E+00 -0.00000000000E+00 -0.10000000000E+04  0.10000000000E+04  0.00000000000E+00 0.  1.
    9000005    2    1    2  501    0 -0.22105502390E+02  0.30218080403E+02 -0.58883185833E+03  0.59004483248E+03  0.53067250601E+01 0.  0.
         13    1    3    3    0    0 -0.21430347110E+02  0.28136058253E+02 -0.56748025894E+03  0.56858134145E+03  0.00000000000E+00 0.  1.
          3    1    3    3  501    0 -0.67515528091E+00  0.20820221497E+01 -0.21351599393E+02  0.21463491037E+02  0.00000000000E+00 0.  1.
         -3    1    1    2    0  502  0.22105502390E+02 -0.30218080403E+02 -0.40970807657E+03  0.41141523261E+03  0.00000000000E+00 0. -1.
<mgrwt>
<rscale>  1 0.30000000E+03</rscale>
<asrwt>0</asrwt>
<pdfrwt beam="1">  1       21 0.53093388E-02 0.30000000E+03</pdfrwt>
<pdfrwt beam="2">0</pdfrwt>
<totfact> 0.25998460E+04</totfact>
</mgrwt>
</event>
<event>
 6    1  0.1273846E-001  0.3000000E+03  0.7818608E-02  0.1093470E+00
         21   -1    0    0  501  502  0.00000000000E+00  0.00000000000E+00  0.67718237389E+01  0.67718237389E+01  0.00000000000E+00 0. -1.
         13   -1    0    0    0    0 -0.00000000000E+00 -0.00000000000E+00 -0.10000000000E+04  0.10000000000E+04  0.00000000000E+00 0.  1.
    9000005    2    1    2  501    0  0.59029957509E+02  0.20475940359E+01 -0.84636597868E+03  0.84847705565E+03  0.94453998573E+01 0.  0.
         13    1    3    3    0    0  0.14193400370E+02 -0.27012586137E+01 -0.24267352892E+03  0.24310325183E+03  0.00000000000E+00 0.  1.
          3    1    3    3  501    0  0.44836557139E+02  0.47488526496E+01 -0.60369244976E+03  0.60537380382E+03  0.00000000000E+00 0.  1.
         -1    1    1    2    0  502 -0.59029957509E+02 -0.20475940359E+01 -0.14686219758E+03  0.15829476808E+03  0.00000000000E+00 0. -1.
<mgrwt>
<rscale>  1 0.30000000E+03</rscale>
<asrwt>0</asrwt>
<pdfrwt beam="1">  1       21 0.24624866E-01 0.30000000E+03</pdfrwt>
<pdfrwt beam="2">0</pdfrwt>
<totfact> 0.16063836E+03</totfact>
</mgrwt>
</event>
<event>
 6    1  0.1273846E-001  0.3000000E+03  0.7818608E-02  0.1093470E+00
         21   -1    0    0  501  502  0.00000000000E+00  0.00000000000E+00  0.36847518986E+01  0.36847518986E+01  0.00000000000E+00 0. -1.
         13   -1    0    0    0    0 -0.00000000000E+00 -0.00000000000E+00 -0.10000000000E+04  0.10000000000E+04  0.00000000000E+00 0.  1.
    9000005    2    1    2  501    0  0.30368968808E+02 -0.51948481454E+02 -0.56176681568E+03  0.56498980195E+03  0.32560888511E+01 0.  0.
         13    1    3    3    0    0  0.16497111563E+02 -0.29403275456E+02 -0.30052567165E+03  0.30241095651E+03  0.00000000000E+00 0.  1.
          1    1    3    3  501    0  0.13871857245E+02 -0.22545205998E+02 -0.26124114403E+03  0.26257884544E+03  0.00000000000E+00 0.  1.
         -3    1    1    2    0  502 -0.30368968808E+02  0.51948481454E+02 -0.43454843242E+03  0.43869494995E+03  0.00000000000E+00 0. -1.
<mgrwt>
<rscale>  1 0.30000000E+03</rscale>
<asrwt>0</asrwt>
<pdfrwt beam="1">  1       21 0.13399126E-01 0.30000000E+03</pdfrwt>
<pdfrwt beam="2">0</pdfrwt>
<totfact> 0.50684257E+03</totfact>
</mgrwt>
</event>
<event>
 6    1  0.1273846E-001  0.3000000E+03  0.7818608E-02  0.1093470E+00
         21   -1    0    0  501  502  0.00000000000E+00  0.00000000000E+00  0.22820194861E+01  0.22820194861E+01  0.00000000000E+00 0. -1.
         13   -1    0    0    0    0 -0.00000000000E+00 -0.00000000000E+00 -0.10000000000E+04  0.10000000000E+04  0.00000000000E+00 0.  1.
    9000005    2    1    2  501    0 -0.18825745975E+02  0.43204058011E+02 -0.57751942567E+03  0.57944892614E+03  0.33721850948E+01 0.  0.
         13    1    3    3    0    0 -0.11772736611E+02  0.24520441712E+02 -0.34923881714E+03  0.35029644701E+03  0.00000000000E+00 0.  1.
          1    1    3    3  501    0 -0.70530093635E+01  0.18683616299E+02 -0.22828060854E+03  0.22915247913E+03  0.00000000000E+00 0.  1.
         -1    1    1    2    0  502  0.18825745975E+02 -0.43204058011E+02 -0.42019855484E+03  0.42283309335E+03  0.00000000000E+00 0. -1.
<mgrwt>
<rscale>  1 0.30000000E+03</rscale>
<asrwt>0</asrwt>
<pdfrwt beam="1">  1       21 0.82982702E-02 0.30000000E+03</pdfrwt>
<pdfrwt beam="2">0</pdfrwt>
<totfact> 0.11977559E+04</totfact>
</mgrwt>
</event>
<event>
 6    1  0.1273846E-001  0.3000000E+03  0.7818608E-02  0.1093470E+00
         21   -1    0    0  501  502  0.00000000000E+00  0.00000000000E+00  0.55899923488E+01  0.55899923488E+01  0.00000000000E+00 0. -1.
         13   -1    0    0    0    0 -0.00000000000E+00 -0.00000000000E+00 -0.10000000000E+04  0.10000000000E+04  0.00000000000E+00 0.  1.
    9000005    2    1    2  501    0 -0.52581759650E+02  0.45715375180E+01 -0.85323244058E+03  0.85486890607E+03  0.30835879040E+01 0.  0.
         13    1    3    3    0    0 -0.16124605479E+02  0.52362426955E-01 -0.25296903715E+03  0.25348242425E+03  0.00000000000E+00 0.  1.
          1    1    3    3  501    0 -0.36457154171E+02  0.45191750911E+01 -0.60026340342E+03  0.60138648183E+03  0.00000000000E+00 0.  1.
         -3    1    1    2    0  502  0.52581759650E+02 -0.45715375180E+01 -0.14117756707E+03  0.15072108628E+03  0.00000000000E+00 0. -1.
<mgrwt>
<rscale>  1 0.30000000E+03</rscale>
<asrwt>0</asrwt>
<pdfrwt beam="1">  1       21 0.20327288E-01 0.30000000E+03</pdfrwt>
<pdfrwt beam="2">0</pdfrwt>
<totfact> 0.23259620E+03</totfact>
</mgrwt>
</event>
<event>
 6    1  0.1273846E-001  0.3000000E+03  0.7818608E-02  0.1093470E+00
         21   -1    0    0  501  502  0.00000000000E+00  0.00000000000E+00  0.21525384310E+01  0.21525384310E+01  0.00000000000E+00 0. -1.
         13   -1    0    0    0    0 -0.00000000000E+00 -0.00000000000E+00 -0.10000000000E+04  0.10000000000E+04  0.00000000000E+00 0.  1.
    9000005    2    1    2  501    0  0.38714255024E+02  0.84329568060E+00 -0.77437131386E+03  0.77534624821E+03  0.33716749692E+01 0.  0.
         13    1    3    3    0    0  0.31843608132E+02  0.41144095264E+00 -0.66009374168E+03  0.66086150778E+03  0.00000000000E+00 0.  1.
          3    1    3    3  501    0  0.68706468916E+01  0.43185472795E+00 -0.11427757218E+03  0.11448474042E+03  0.00000000000E+00 0.  1.
         -3    1    1    2    0  502 -0.38714255024E+02 -0.84329568060E+00 -0.22347614771E+03  0.22680629023E+03  0.00000000000E+00 0. -1.
<mgrwt>
<rscale>  1 0.30000000E+03</rscale>
<asrwt>0</asrwt>
<pdfrwt beam="1">  1       21 0.78274290E-02 0.30000000E+03</pdfrwt>
<pdfrwt beam="2">0</pdfrwt>
<totfact> 0.13272344E+04</totfact>
</mgrwt>
</event>
<event>
 6    1  0.1273846E-001  0.3000000E+03  0.7818608E-02  0.1093470E+00
         21   -1    0    0  501  502  0.00000000000E+00  0.00000000000E+00  0.14679440615E+01  0.14679440615E+01  0.00000000000E+00 0. -1.
         13   -1    0    0    0    0 -0.00000000000E+00 -0.00000000000E+00 -0.10000000000E+04  0.10000000000E+04  0.00000000000E+00 0.  1.
    9000005    2    1    2  501    0  0.27482676905E+02  0.17053460808E+02 -0.76643247159E+03  0.76712559810E+03  0.41026453858E+01 0.  0.
         13    1    3    3    0    0  0.55625660349E+01  0.55014053334E+01 -0.18713199195E+03  0.18729546180E+03  0.00000000000E+00 0.  1.
          1    1    3    3  501    0  0.21920110870E+02  0.11552055475E+02 -0.57930047964E+03  0.57983013630E+03  0.00000000000E+00 0.  1.
         -3    1    1    2    0  502 -0.27482676905E+02 -0.17053460808E+02 -0.23209958435E+03  0.23434234596E+03  0.00000000000E+00 0. -1.
<mgrwt>
<rscale>  1 0.30000000E+03</rscale>
<asrwt>0</asrwt>
<pdfrwt beam="1">  1       21 0.53379897E-02 0.30000000E+03</pdfrwt>
<pdfrwt beam="2">0</pdfrwt>
<totfact> 0.25760185E+04</totfact>
</mgrwt>
</event>
<event>
 6    1  0.1273846E-001  0.3000000E+03  0.7818608E-02  0.1093470E+00
         21   -1    0    0  501  502  0.00000000000E+00  0.00000000000E+00  0.19132818861E+01  0.19132818861E+01  0.00000000000E+00 0. -1.
         13   -1    0    0    0    0 -0.00000000000E+00 -0.00000000000E+00 -0.10000000000E+04  0.10000000000E+04  0.00000000000E+00 0.  1.
    9000005    2    1    2  501    0  0.23012076989E+02 -0.24312534473E+02 -0.82113178264E+03  0.82181968342E+03  0.30874869335E+01 0.  0.
         13    1    3    3    0    0  0.11093901298E+02 -0.13548452376E+02 -0.45013605810E+03  0.45047653214E+03  0.00000000000E+00 0.  1.
          3    1    3    3  501    0  0.11918175691E+02 -0.10764082097E+02 -0.37099572454E+03  0.37134315128E+03  0.00000000000E+00 0.  1.
         -3    1    1    2    0  502 -0.23012076989E+02  0.24312534473E+02 -0.17695493547E+03  0.18009359847E+03  0.00000000000E+00 0. -1.
<mgrwt>
<rscale>  1 0.30000000E+03</rscale>
<asrwt>0</asrwt>
<pdfrwt beam="1">  1       21 0.69574033E-02 0.30000000E+03</pdfrwt>
<pdfrwt beam="2">0</pdfrwt>
<totfact> 0.16307558E+04</totfact>
</mgrwt>
</event>
<event>
 6    1  0.1273846E-001  0.3000000E+03  0.7818608E-02  0.1093470E+00
         21   -1    0    0  501  502  0.00000000000E+00  0.00000000000E+00  0.11228013635E+01  0.11228013635E+01  0.00000000000E+00 0. -1.
         13   -1    0    0    0    0 -0.00000000000E+00 -0.00000000000E+00 -0.10000000000E+04  0.10000000000E+04  0.00000000000E+00 0.  1.
    9000005    2    1    2  501    0  0.31064489954E+02 -0.93047798292E+01 -0.42878691635E+03  0.43011097012E+03  0.92544864740E+01 0.  0.
         13    1    3    3    0    0  0.28592829528E+02 -0.10186285585E+02 -0.36119018306E+03  0.36246332042E+03  0.00000000000E+00 0.  1.
          1    1    3    3  501    0  0.24716604261E+01  0.88150575574E+00 -0.67596733290E+02  0.67647649694E+02  0.00000000000E+00 0.  1.
         -1    1    1    2    0  502 -0.31064489954E+02  0.93047798292E+01 -0.57009028229E+03  0.57101183125E+03  0.00000000000E+00 0. -1.
<mgrwt>
<rscale>  1 0.30000000E+03</rscale>
<asrwt>0</asrwt>
<pdfrwt beam="1">  1       21 0.40829227E-02 0.30000000E+03</pdfrwt>
<pdfrwt beam="2">0</pdfrwt>
<totfact> 0.40618481E+04</totfact>
</mgrwt>
</event>
<event>
 6    1  0.1273846E-001  0.3000000E+03  0.7818608E-02  0.1093470E+00
         21   -1    0    0  501  502  0.00000000000E+00  0.00000000000E+00  0.11820729202E+01  0.11820729202E+01  0.00000000000E+00 0. -1.
         13   -1    0    0    0    0 -0.00000000000E+00 -0.00000000000E+00 -0.10000000000E+04  0.10000000000E+04  0.00000000000E+00 0.  1.
    9000005    2    1    2  501    0  0.21740253939E+02  0.21493832109E+02 -0.72703346080E+03  0.72768359107E+03  0.33364859705E+01 0.  0.
         13    1    3    3    0    0  0.73578707937E+01  0.81982570991E+01 -0.22813341203E+03  0.22839921928E+03  0.00000000000E+00 0.  1.
          1    1    3    3  501    0  0.14382383145E+02  0.13295575010E+02 -0.49890004877E+03  0.49928437179E+03  0.00000000000E+00 0.  1.
         -3    1    1    2    0  502 -0.21740253939E+02 -0.21493832109E+02 -0.27178446628E+03  0.27349848185E+03  0.00000000000E+00 0. -1.
<mgrwt>
<rscale>  1 0.30000000E+03</rscale>
<asrwt>0</asrwt>
<pdfrwt beam="1">  1       21 0.42984560E-02 0.30000000E+03</pdfrwt>
<pdfrwt beam="2">0</pdfrwt>
<totfact> 0.37239354E+04</totfact>
</mgrwt>
</event>
<event>
 6    1  0.1273846E-001  0.3000000E+03  0.7818608E-02  0.1093470E+00
         21   -1    0    0  501  502  0.00000000000E+00  0.00000000000E+00  0.18401792978E+01  0.18401792978E+01  0.00000000000E+00 0. -1.
         13   -1    0    0    0    0 -0.00000000000E+00 -0.00000000000E+00 -0.10000000000E+04  0.10000000000E+04  0.00000000000E+00 0.  1.
    9000005    2    1    2  501    0 -0.62244256749E+01 -0.37676806611E+02 -0.72624150448E+03  0.72725347909E+03  0.35517311922E+01 0.  0.
         13    1    3    3    0    0 -0.39754486902E+01 -0.21150331066E+02 -0.37661272059E+03  0.37722709607E+03  0.00000000000E+00 0.  1.
          3    1    3    3  501    0 -0.22489769847E+01 -0.16526475546E+02 -0.34962878388E+03  0.35002638302E+03  0.00000000000E+00 0.  1.
         -3    1    1    2    0  502  0.62244256749E+01  0.37676806611E+02 -0.27191831623E+03  0.27458670021E+03  0.00000000000E+00 0. -1.
<mgrwt>
<rscale>  1 0.30000000E+03</rscale>
<asrwt>0</asrwt>
<pdfrwt beam="1">  1       21 0.66915752E-02 0.30000000E+03</pdfrwt>
<pdfrwt beam="2">0</pdfrwt>
<totfact> 0.17449223E+04</totfact>
</mgrwt>
</event>
<event>
 6    1  0.1273846E-001  0.3000000E+03  0.7818608E-02  0.1093470E+00
         21   -1    0    0  501  502  0.00000000000E+00  0.00000000000E+00  0.20060057961E+01  0.20060057961E+01  0.00000000000E+00 0. -1.
         13   -1    0    0    0    0 -0.00000000000E+00 -0.00000000000E+00 -0.10000000000E+04  0.10000000000E+04  0.00000000000E+00 0.  1.
    9000005    2    1    2  501    0  0.25772046619E+02  0.23101674982E+02 -0.81660542160E+03  0.81734496484E+03  0.32390117248E+01 0.  0.
         13    1    3    3    0    0  0.17837625890E+02  0.16005313067E+02 -0.52891308422E+03  0.52945575982E+03  0.00000000000E+00 0.  1.
          1    1    3    3  501    0  0.79344207294E+01  0.70963619142E+01 -0.28769233737E+03  0.28788920502E+03  0.00000000000E+00 0.  1.
         -1    1    1    2    0  502 -0.25772046619E+02 -0.23101674982E+02 -0.18138857261E+03  0.18466104095E+03  0.00000000000E+00 0. -1.
<mgrwt>
<rscale>  1 0.30000000E+03</rscale>
<asrwt>0</asrwt>
<pdfrwt beam="1">  1       21 0.72945819E-02 0.30000000E+03</pdfrwt>
<pdfrwt beam="2">0</pdfrwt>
<totfact> 0.15016394E+04</totfact>
</mgrwt>
</event>
<event>
 6    1  0.1273846E-001  0.3000000E+03  0.7818608E-02  0.1093470E+00
         21   -1    0    0  501  502  0.00000000000E+00  0.00000000000E+00  0.18821662242E+01  0.18821662242E+01  0.00000000000E+00 0. -1.
         13   -1    0    0    0    0 -0.00000000000E+00 -0.00000000000E+00 -0.10000000000E+04  0.10000000000E+04  0.00000000000E+00 0.  1.
    9000005    2    1    2  501    0 -0.24119738629E+02 -0.32726548654E+02 -0.67212931049E+03  0.67336838250E+03  0.37920655955E+01 0.  0.
         13    1    3    3    0    0 -0.19116927553E+02 -0.28216721824E+02 -0.55485736191E+03  0.55590316817E+03  0.00000000000E+00 0.  1.
          3    1    3    3  501    0 -0.50028110761E+01 -0.45098268301E+01 -0.11727194857E+03  0.11746521433E+03  0.00000000000E+00 0.  1.
         -3    1    1    2    0  502  0.24119738629E+02  0.32726548654E+02 -0.32598852329E+03  0.32851378372E+03  0.00000000000E+00 0. -1.
<mgrwt>
<rscale>  1 0.30000000E+03</rscale>
<asrwt>0</asrwt>
<pdfrwt beam="1">  1       21 0.68442552E-02 0.30000000E+03</pdfrwt>
<pdfrwt beam="2">0</pdfrwt>
<totfact> 0.16779072E+04</totfact>
</mgrwt>
</event>
<event>
 6    1  0.1273846E-001  0.3000000E+03  0.7818608E-02  0.1093470E+00
         21   -1    0    0  501  502  0.00000000000E+00  0.00000000000E+00  0.30728911143E+01  0.30728911143E+01  0.00000000000E+00 0. -1.
         13   -1    0    0    0    0 -0.00000000000E+00 -0.00000000000E+00 -0.10000000000E+04  0.10000000000E+04  0.00000000000E+00 0.  1.
    9000005    2    1    2  501    0 -0.32209709062E+02  0.14321904752E+02 -0.88543171467E+03  0.88613784399E+03  0.28939423774E+01 0.  0.
         13    1    3    3    0    0 -0.14849983265E+02  0.50302234532E+01 -0.39343591412E+03  0.39374819831E+03  0.00000000000E+00 0.  1.
          3    1    3    3  501    0 -0.17359725797E+02  0.92916812990E+01 -0.49199580054E+03  0.49238964568E+03  0.00000000000E+00 0.  1.
         -3    1    1    2    0  502  0.32209709062E+02 -0.14321904752E+02 -0.11149539422E+03  0.11693504712E+03  0.00000000000E+00 0. -1.
<mgrwt>
<rscale>  1 0.30000000E+03</rscale>
<asrwt>0</asrwt>
<pdfrwt beam="1">  1       21 0.11174173E-01 0.30000000E+03</pdfrwt>
<pdfrwt beam="2">0</pdfrwt>
<totfact> 0.70497836E+03</totfact>
</mgrwt>
</event>
<event>
 6    1  0.1273846E-001  0.3000000E+03  0.7818608E-02  0.1093470E+00
         21   -1    0    0  501  502  0.00000000000E+00  0.00000000000E+00  0.25692601891E+02  0.25692601891E+02  0.00000000000E+00 0. -1.
         13   -1    0    0    0    0 -0.00000000000E+00 -0.00000000000E+00 -0.10000000000E+04  0.10000000000E+04  0.00000000000E+00 0.  1.
    9000005    2    1    2  501    0  0.19204802694E+02 -0.76057440351E+02 -0.93437776542E+03  0.93767025106E+03  0.31831634328E+01 0.  0.
         13    1    3    3    0    0  0.11067291698E+02 -0.48988265138E+02 -0.60809033309E+03  0.61016078886E+03  0.00000000000E+00 0.  1.
          1    1    3    3  501    0  0.81375109955E+01 -0.27069175213E+02 -0.32628743233E+03  0.32750946220E+03  0.00000000000E+00 0.  1.
         -1    1    1    2    0  502 -0.19204802694E+02  0.76057440351E+02 -0.39929632687E+02  0.88022350830E+02  0.00000000000E+00 0. -1.
<mgrwt>
<rscale>  1 0.30000000E+03</rscale>
<asrwt>0</asrwt>
<pdfrwt beam="1">  1       21 0.93427840E-01 0.30000000E+03</pdfrwt>
<pdfrwt beam="2">0</pdfrwt>
<totfact> 0.87571405E+01</totfact>
</mgrwt>
</event>
<event>
 6    1  0.1273846E-001  0.3000000E+03  0.7818608E-02  0.1093470E+00
         21   -1    0    0  501  502  0.00000000000E+00  0.00000000000E+00  0.12380513192E+01  0.12380513192E+01  0.00000000000E+00 0. -1.
         13   -1    0    0    0    0 -0.00000000000E+00 -0.00000000000E+00 -0.10000000000E+04  0.10000000000E+04  0.00000000000E+00 0.  1.
    9000005    2    1    2  501    0  0.15553587554E+02 -0.31396029064E+02 -0.47108316362E+03  0.47239731449E+03  0.35001377511E+01 0.  0.
         13    1    3    3    0    0  0.62365507096E+01 -0.12631598400E+02 -0.16683408084E+03  0.16742778256E+03  0.00000000000E+00 0.  1.
          1    1    3    3  501    0  0.93170368444E+01 -0.18764430664E+02 -0.30424908278E+03  0.30496953193E+03  0.00000000000E+00 0.  1.
         -1    1    1    2    0  502 -0.15553587554E+02  0.31396029064E+02 -0.52767878506E+03  0.52884073683E+03  0.00000000000E+00 0. -1.
<mgrwt>
<rscale>  1 0.30000000E+03</rscale>
<asrwt>0</asrwt>
<pdfrwt beam="1">  1       21 0.45020143E-02 0.30000000E+03</pdfrwt>
<pdfrwt beam="2">0</pdfrwt>
<totfact> 0.34432031E+04</totfact>
</mgrwt>
</event>
<event>
 6    1  0.1273846E-001  0.3000000E+03  0.7818608E-02  0.1093470E+00
         21   -1    0    0  501  502  0.00000000000E+00  0.00000000000E+00  0.18446635326E+01  0.18446635326E+01  0.00000000000E+00 0. -1.
         13   -1    0    0    0    0 -0.00000000000E+00 -0.00000000000E+00 -0.10000000000E+04  0.10000000000E+04  0.00000000000E+00 0.  1.
    9000005    2    1    2  501    0 -0.24422437520E+02  0.27192832022E+02 -0.76159390843E+03  0.76247629720E+03  0.29861110662E+01 0.  0.
         13    1    3    3    0    0 -0.24355095684E+02  0.27115407581E+02 -0.76108144847E+03  0.76195366475E+03  0.00000000000E+00 0.  1.
          1    1    3    3  501    0 -0.67341836360E-01  0.77424441268E-01 -0.51245996262E+00  0.52263245242E+00  0.00000000000E+00 0.  1.
         -3    1    1    2    0  502  0.24422437520E+02 -0.27192832022E+02 -0.23656142804E+03  0.23936836634E+03  0.00000000000E+00 0. -1.
<mgrwt>
<rscale>  1 0.30000000E+03</rscale>
<asrwt>0</asrwt>
<pdfrwt beam="1">  1       21 0.67078815E-02 0.30000000E+03</pdfrwt>
<pdfrwt beam="2">0</pdfrwt>
<totfact> 0.17375707E+04</totfact>
</mgrwt>
</event>
<event>
 6    1  0.1273846E-001  0.3000000E+03  0.7818608E-02  0.1093470E+00
         21   -1    0    0  501  502  0.00000000000E+00  0.00000000000E+00  0.10512202285E+01  0.10512202285E+01  0.00000000000E+00 0. -1.
         13   -1    0    0    0    0 -0.00000000000E+00 -0.00000000000E+00 -0.10000000000E+04  0.10000000000E+04  0.00000000000E+00 0.  1.
    9000005    2    1    2  501    0  0.22543897681E+02 -0.22993026409E+02 -0.53672818333E+03  0.53771032373E+03  0.42828597215E+01 0.  0.
         13    1    3    3    0    0  0.19838847724E+01 -0.27757618994E+01 -0.39659109485E+02  0.39805597823E+02  0.00000000000E+00 0.  1.
          3    1    3    3  501    0  0.20560012909E+02 -0.20217264509E+02 -0.49706907384E+03  0.49790472591E+03  0.00000000000E+00 0.  1.
         -1    1    1    2    0  502 -0.22543897681E+02  0.22993026409E+02 -0.46222059645E+03  0.46334089649E+03  0.00000000000E+00 0. -1.
<mgrwt>
<rscale>  1 0.30000000E+03</rscale>
<asrwt>0</asrwt>
<pdfrwt beam="1">  1       21 0.38226271E-02 0.30000000E+03</pdfrwt>
<pdfrwt beam="2">0</pdfrwt>
<totfact> 0.45381098E+04</totfact>
</mgrwt>
</event>
<event>
 6    1  0.1273846E-001  0.3000000E+03  0.7818608E-02  0.1093470E+00
         21   -1    0    0  501  502  0.00000000000E+00  0.00000000000E+00  0.24616071165E+01  0.24616071165E+01  0.00000000000E+00 0. -1.
         13   -1    0    0    0    0 -0.00000000000E+00 -0.00000000000E+00 -0.10000000000E+04  0.10000000000E+04  0.00000000000E+00 0.  1.
    9000005    2    1    2  501    0  0.54943464862E+01  0.47969556182E+02 -0.61194070709E+03  0.61385275306E+03  0.35365631973E+01 0.  0.
         13    1    3    3    0    0  0.30146154199E+01  0.12753521702E+02 -0.16203916488E+03  0.16256823545E+03  0.00000000000E+00 0.  1.
          1    1    3    3  501    0  0.24797310664E+01  0.35216034480E+02 -0.44990154221E+03  0.45128451761E+03  0.00000000000E+00 0.  1.
         -1    1    1    2    0  502 -0.54943464862E+01 -0.47969556182E+02 -0.38559768580E+03  0.38860885406E+03  0.00000000000E+00 0. -1.
<mgrwt>
<rscale>  1 0.30000000E+03</rscale>
<asrwt>0</asrwt>
<pdfrwt beam="1">  1       21 0.89513175E-02 0.30000000E+03</pdfrwt>
<pdfrwt beam="2">0</pdfrwt>
<totfact> 0.10478271E+04</totfact>
</mgrwt>
</event>
<event>
 6    1  0.1273846E-001  0.3000000E+03  0.7818608E-02  0.1093470E+00
         21   -1    0    0  501  502  0.00000000000E+00  0.00000000000E+00  0.40647523367E+01  0.40647523367E+01  0.00000000000E+00 0. -1.
         13   -1    0    0    0    0 -0.00000000000E+00 -0.00000000000E+00 -0.10000000000E+04  0.10000000000E+04  0.00000000000E+00 0.  1.
    9000005    2    1    2  501    0  0.10808599211E+01  0.32629073484E+02 -0.92904917361E+03  0.92963645397E+03  0.50739414786E+01 0.  0.
         13    1    3    3    0    0  0.30424958349E+00  0.14580141452E+02 -0.48694986693E+03  0.48716819067E+03  0.00000000000E+00 0.  1.
          1    1    3    3  501    0  0.77661033761E+00  0.18048932032E+02 -0.44209930667E+03  0.44246826330E+03  0.00000000000E+00 0.  1.
         -1    1    1    2    0  502 -0.10808599211E+01 -0.32629073484E+02 -0.66886074058E+02  0.74428298364E+02  0.00000000000E+00 0. -1.
<mgrwt>
<rscale>  1 0.30000000E+03</rscale>
<asrwt>0</asrwt>
<pdfrwt beam="1">  1       21 0.14780949E-01 0.30000000E+03</pdfrwt>
<pdfrwt beam="2">0</pdfrwt>
<totfact> 0.42316052E+03</totfact>
</mgrwt>
</event>
<event>
 6    1  0.1273846E-001  0.3000000E+03  0.7818608E-02  0.1093470E+00
         21   -1    0    0  501  502  0.00000000000E+00  0.00000000000E+00  0.17184489671E+01  0.17184489671E+01  0.00000000000E+00 0. -1.
         13   -1    0    0    0    0 -0.00000000000E+00 -0.00000000000E+00 -0.10000000000E+04  0.10000000000E+04  0.00000000000E+00 0.  1.
    9000005    2    1    2  501    0 -0.30593034592E+02 -0.28427151615E+01 -0.83489752289E+03  0.83547057546E+03  0.36323447487E+01 0.  0.
         13    1    3    3    0    0 -0.18272703351E+02 -0.12491547141E+01 -0.54304690228E+03  0.54335567555E+03  0.00000000000E+00 0.  1.
          3    1    3    3  501    0 -0.12320331241E+02 -0.15935604474E+01 -0.29185062061E+03  0.29211489991E+03  0.00000000000E+00 0.  1.
         -1    1    1    2    0  502  0.30593034592E+02  0.28427151615E+01 -0.16338402814E+03  0.16624787351E+03  0.00000000000E+00 0. -1.
<mgrwt>
<rscale>  1 0.30000000E+03</rscale>
<asrwt>0</asrwt>
<pdfrwt beam="1">  1       21 0.62489185E-02 0.30000000E+03</pdfrwt>
<pdfrwt beam="2">0</pdfrwt>
<totfact> 0.19643840E+04</totfact>
</mgrwt>
</event>
<event>
 6    1  0.1273846E-001  0.3000000E+03  0.7818608E-02  0.1093470E+00
         21   -1    0    0  501  502  0.00000000000E+00  0.00000000000E+00  0.18578965201E+01  0.18578965201E+01  0.00000000000E+00 0. -1.
         13   -1    0    0    0    0 -0.00000000000E+00 -0.00000000000E+00 -0.10000000000E+04  0.10000000000E+04  0.00000000000E+00 0.  1.
    9000005    2    1    2  501    0  0.31020271640E+02  0.27744503163E+02 -0.37307141698E+03  0.37540328696E+03  0.36511628307E+01 0.  0.
         13    1    3    3    0    0  0.22977806567E+02  0.20342115198E+02 -0.26003482149E+03  0.26183943483E+03  0.00000000000E+00 0.  1.
          3    1    3    3  501    0  0.80424650731E+01  0.74023879652E+01 -0.11303659549E+03  0.11356385214E+03  0.00000000000E+00 0.  1.
         -3    1    1    2    0  502 -0.31020271640E+02 -0.27744503163E+02 -0.62507068650E+03  0.62645460956E+03  0.00000000000E+00 0. -1.
<mgrwt>
<rscale>  1 0.30000000E+03</rscale>
<asrwt>0</asrwt>
<pdfrwt beam="1">  1       21 0.67560016E-02 0.30000000E+03</pdfrwt>
<pdfrwt beam="2">0</pdfrwt>
<totfact> 0.17161514E+04</totfact>
</mgrwt>
</event>
<event>
 6    1  0.1273846E-001  0.3000000E+03  0.7818608E-02  0.1093470E+00
         21   -1    0    0  501  502  0.00000000000E+00  0.00000000000E+00  0.99002470187E+00  0.99002470187E+00  0.00000000000E+00 0. -1.
         13   -1    0    0    0    0 -0.00000000000E+00 -0.00000000000E+00 -0.10000000000E+04  0.10000000000E+04  0.00000000000E+00 0.  1.
    9000005    2    1    2  501    0  0.40869433038E+01  0.30844649932E+02 -0.48400389542E+03  0.48504491342E+03  0.63797904739E+01 0.  0.
         13    1    3    3    0    0  0.28481378585E+01  0.15856666602E+02 -0.20265302172E+03  0.20329238298E+03  0.00000000000E+00 0.  1.
          3    1    3    3  501    0  0.12388054453E+01  0.14987983331E+02 -0.28135087369E+03  0.28175253044E+03  0.00000000000E+00 0.  1.
         -1    1    1    2    0  502 -0.40869433038E+01 -0.30844649932E+02 -0.51500607988E+03  0.51594511128E+03  0.00000000000E+00 0. -1.
<mgrwt>
<rscale>  1 0.30000000E+03</rscale>
<asrwt>0</asrwt>
<pdfrwt beam="1">  1       21 0.36000974E-02 0.30000000E+03</pdfrwt>
<pdfrwt beam="2">0</pdfrwt>
<totfact> 0.50188034E+04</totfact>
</mgrwt>
</event>
<event>
 6    1  0.1273846E-001  0.3000000E+03  0.7818608E-02  0.1093470E+00
         21   -1    0    0  501  502  0.00000000000E+00  0.00000000000E+00  0.16683998674E+01  0.16683998674E+01  0.00000000000E+00 0. -1.
         13   -1    0    0    0    0 -0.00000000000E+00 -0.00000000000E+00 -0.10000000000E+04  0.10000000000E+04  0.00000000000E+00 0.  1.
    9000005    2    1    2  501    0  0.19002461444E+02 -0.36010877800E+02 -0.52848055878E+03  0.53005640053E+03  0.31952889214E+01 0.  0.
         13    1    3    3    0    0  0.70924468357E+01 -0.16838538048E+02 -0.23767708528E+03  0.23837834640E+03  0.00000000000E+00 0.  1.
          3    1    3    3  501    0  0.11910014608E+02 -0.19172339752E+02 -0.29080347350E+03  0.29167805413E+03  0.00000000000E+00 0.  1.
         -1    1    1    2    0  502 -0.19002461444E+02  0.36010877800E+02 -0.46985104135E+03  0.47161199934E+03  0.00000000000E+00 0. -1.
<mgrwt>
<rscale>  1 0.30000000E+03</rscale>
<asrwt>0</asrwt>
<pdfrwt beam="1">  1       21 0.60669214E-02 0.30000000E+03</pdfrwt>
<pdfrwt beam="2">0</pdfrwt>
<totfact> 0.20672319E+04</totfact>
</mgrwt>
</event>
<event>
 6    1  0.1273846E-001  0.3000000E+03  0.7818608E-02  0.1093470E+00
         21   -1    0    0  501  502  0.00000000000E+00  0.00000000000E+00  0.10979222440E+01  0.10979222440E+01  0.00000000000E+00 0. -1.
         13   -1    0    0    0    0 -0.00000000000E+00 -0.00000000000E+00 -0.10000000000E+04  0.10000000000E+04  0.00000000000E+00 0.  1.
    9000005    2    1    2  501    0  0.11915193248E+02  0.27660914214E+02 -0.70584084190E+03  0.70649312601E+03  0.37609830717E+01 0.  0.
         13    1    3    3    0    0  0.26502886436E+01  0.53934306354E+01 -0.10949973926E+03  0.10966451578E+03  0.00000000000E+00 0.  1.
          3    1    3    3  501    0  0.92649046044E+01  0.22267483579E+02 -0.59634110264E+03  0.59682861022E+03  0.00000000000E+00 0.  1.
         -1    1    1    2    0  502 -0.11915193248E+02 -0.27660914214E+02 -0.29306123585E+03  0.29460479623E+03  0.00000000000E+00 0. -1.
<mgrwt>
<rscale>  1 0.30000000E+03</rscale>
<asrwt>0</asrwt>
<pdfrwt beam="1">  1       21 0.39924529E-02 0.30000000E+03</pdfrwt>
<pdfrwt beam="2">0</pdfrwt>
<totfact> 0.42181256E+04</totfact>
</mgrwt>
</event>
<event>
 6    1  0.1273846E-001  0.3000000E+03  0.7818608E-02  0.1093470E+00
         21   -1    0    0  501  502  0.00000000000E+00  0.00000000000E+00  0.17588554814E+01  0.17588554814E+01  0.00000000000E+00 0. -1.
         13   -1    0    0    0    0 -0.00000000000E+00 -0.00000000000E+00 -0.10000000000E+04  0.10000000000E+04  0.00000000000E+00 0.  1.
    9000005    2    1    2  501    0  0.15095468194E+02  0.35890283351E+02 -0.68391653183E+03  0.68503192618E+03  0.33063250011E+01 0.  0.
         13    1    3    3    0    0  0.11266817893E+02  0.29013619432E+02 -0.52735440369E+03  0.52827208746E+03  0.00000000000E+00 0.  1.
          1    1    3    3  501    0  0.38286503007E+01  0.68766639186E+01 -0.15656212814E+03  0.15675983872E+03  0.00000000000E+00 0.  1.
         -3    1    1    2    0  502 -0.15095468194E+02 -0.35890283351E+02 -0.31432461269E+03  0.31672692930E+03  0.00000000000E+00 0. -1.
<mgrwt>
<rscale>  1 0.30000000E+03</rscale>
<asrwt>0</asrwt>
<pdfrwt beam="1">  1       21 0.63958516E-02 0.30000000E+03</pdfrwt>
<pdfrwt beam="2">0</pdfrwt>
<totfact> 0.18870230E+04</totfact>
</mgrwt>
</event>
<event>
 6    1  0.1273846E-001  0.3000000E+03  0.7818608E-02  0.1093470E+00
         21   -1    0    0  501  502  0.00000000000E+00  0.00000000000E+00  0.26112734838E+01  0.26112734838E+01  0.00000000000E+00 0. -1.
         13   -1    0    0    0    0 -0.00000000000E+00 -0.00000000000E+00 -0.10000000000E+04  0.10000000000E+04  0.00000000000E+00 0.  1.
    9000005    2    1    2  501    0  0.43251404173E+02 -0.26183972098E+02 -0.56899675048E+03  0.57124603440E+03  0.29060975543E+01 0.  0.
         13    1    3    3    0    0  0.12887754211E+02 -0.62726779415E+01 -0.16132161083E+03  0.16195710178E+03  0.00000000000E+00 0.  1.
          1    1    3    3  501    0  0.30363649962E+02 -0.19911294157E+02 -0.40767513966E+03  0.40928893262E+03  0.00000000000E+00 0.  1.
         -3    1    1    2    0  502 -0.43251404173E+02  0.26183972098E+02 -0.42839197603E+03  0.43136523908E+03  0.00000000000E+00 0. -1.
<mgrwt>
<rscale>  1 0.30000000E+03</rscale>
<asrwt>0</asrwt>
<pdfrwt beam="1">  1       21 0.94955600E-02 0.30000000E+03</pdfrwt>
<pdfrwt beam="2">0</pdfrwt>
<totfact> 0.94355779E+03</totfact>
</mgrwt>
</event>
<event>
 6    1  0.1273846E-001  0.3000000E+03  0.7818608E-02  0.1093470E+00
         21   -1    0    0  501  502  0.00000000000E+00  0.00000000000E+00  0.13402108861E+01  0.13402108861E+01  0.00000000000E+00 0. -1.
         13   -1    0    0    0    0 -0.00000000000E+00 -0.00000000000E+00 -0.10000000000E+04  0.10000000000E+04  0.00000000000E+00 0.  1.
    9000005    2    1    2  501    0 -0.26131511160E+02  0.24956113218E+02 -0.57448368248E+03  0.57562782805E+03  0.31986755423E+01 0.  0.
         13    1    3    3    0    0 -0.53620974997E+01  0.37653268691E+01 -0.92633398295E+02  0.92864827872E+02  0.00000000000E+00 0.  1.
          3    1    3    3  501    0 -0.20769413660E+02  0.21190786349E+02 -0.48185028418E+03  0.48276300018E+03  0.00000000000E+00 0.  1.
         -3    1    1    2    0  502  0.26131511160E+02 -0.24956113218E+02 -0.42417610663E+03  0.42571238284E+03  0.00000000000E+00 0. -1.
<mgrwt>
<rscale>  1 0.30000000E+03</rscale>
<asrwt>0</asrwt>
<pdfrwt beam="1">  1       21 0.48735044E-02 0.30000000E+03</pdfrwt>
<pdfrwt beam="2">0</pdfrwt>
<totfact> 0.30090016E+04</totfact>
</mgrwt>
</event>
<event>
 6    1  0.1273846E-001  0.3000000E+03  0.7818608E-02  0.1093470E+00
         21   -1    0    0  501  502  0.00000000000E+00  0.00000000000E+00  0.24606827018E+01  0.24606827018E+01  0.00000000000E+00 0. -1.
         13   -1    0    0    0    0 -0.00000000000E+00 -0.00000000000E+00 -0.10000000000E+04  0.10000000000E+04  0.00000000000E+00 0.  1.
    9000005    2    1    2  501    0  0.18324261501E+02 -0.40966220587E+02 -0.71155939908E+03  0.71298093658E+03  0.33208016279E+01 0.  0.
         13    1    3    3    0    0  0.40598253694E+01 -0.68139835955E+01 -0.13987588333E+03  0.14010058990E+03  0.00000000000E+00 0.  1.
          3    1    3    3  501    0  0.14264436131E+02 -0.34152236991E+02 -0.57168351575E+03  0.57288034668E+03  0.00000000000E+00 0.  1.
         -1    1    1    2    0  502 -0.18324261501E+02  0.40966220587E+02 -0.28597991822E+03  0.28947974612E+03  0.00000000000E+00 0. -1.
<mgrwt>
<rscale>  1 0.30000000E+03</rscale>
<asrwt>0</asrwt>
<pdfrwt beam="1">  1       21 0.89479560E-02 0.30000000E+03</pdfrwt>
<pdfrwt beam="2">0</pdfrwt>
<totfact> 0.10485242E+04</totfact>
</mgrwt>
</event>
<event>
 6    1  0.1273846E-001  0.3000000E+03  0.7818608E-02  0.1093470E+00
         21   -1    0    0  501  502  0.00000000000E+00  0.00000000000E+00  0.14135123681E+01  0.14135123681E+01  0.00000000000E+00 0. -1.
         13   -1    0    0    0    0 -0.00000000000E+00 -0.00000000000E+00 -0.10000000000E+04  0.10000000000E+04  0.00000000000E+00 0.  1.
    9000005    2    1    2  501    0 -0.10219488510E+02 -0.36069108901E+02 -0.47920352587E+03  0.48067933879E+03  0.33449920808E+01 0.  0.
         13    1    3    3    0    0 -0.65807879183E+01 -0.26242055998E+02 -0.36087063400E+03  0.36188336071E+03  0.00000000000E+00 0.  1.
          1    1    3    3  501    0 -0.36387005920E+01 -0.98270529032E+01 -0.11833289187E+03  0.11879597808E+03  0.00000000000E+00 0.  1.
         -3    1    1    2    0  502  0.10219488510E+02  0.36069108901E+02 -0.51938296176E+03  0.52073417358E+03  0.00000000000E+00 0. -1.
<mgrwt>
<rscale>  1 0.30000000E+03</rscale>
<asrwt>0</asrwt>
<pdfrwt beam="1">  1       21 0.51400558E-02 0.30000000E+03</pdfrwt>
<pdfrwt beam="2">0</pdfrwt>
<totfact> 0.27478635E+04</totfact>
</mgrwt>
</event>
<event>
 6    1  0.1273846E-001  0.3000000E+03  0.7818608E-02  0.1093470E+00
         21   -1    0    0  501  502  0.00000000000E+00  0.00000000000E+00  0.32760283017E+01  0.32760283017E+01  0.00000000000E+00 0. -1.
         13   -1    0    0    0    0 -0.00000000000E+00 -0.00000000000E+00 -0.10000000000E+04  0.10000000000E+04  0.00000000000E+00 0.  1.
    9000005    2    1    2  501    0 -0.40402170572E+02 -0.33892632694E+02 -0.69268223314E+03  0.69469471856E+03  0.33211362933E+01 0.  0.
         13    1    3    3    0    0 -0.29456268259E+02 -0.24515724238E+02 -0.52212484295E+03  0.52352941092E+03  0.00000000000E+00 0.  1.
          1    1    3    3  501    0 -0.10945902313E+02 -0.93769084560E+01 -0.17055739020E+03  0.17116530764E+03  0.00000000000E+00 0.  1.
         -1    1    1    2    0  502  0.40402170572E+02  0.33892632694E+02 -0.30404173855E+03  0.30858130974E+03  0.00000000000E+00 0. -1.
<mgrwt>
<rscale>  1 0.30000000E+03</rscale>
<asrwt>0</asrwt>
<pdfrwt beam="1">  1       21 0.11912855E-01 0.30000000E+03</pdfrwt>
<pdfrwt beam="2">0</pdfrwt>
<totfact> 0.62796060E+03</totfact>
</mgrwt>
</event>
<event>
 6    1  0.1273846E-001  0.3000000E+03  0.7818608E-02  0.1093470E+00
         21   -1    0    0  501  502  0.00000000000E+00  0.00000000000E+00  0.17531356714E+01  0.17531356714E+01  0.00000000000E+00 0. -1.
         13   -1    0    0    0    0 -0.00000000000E+00 -0.00000000000E+00 -0.10000000000E+04  0.10000000000E+04  0.00000000000E+00 0.  1.
    9000005    2    1    2  501    0 -0.31476976890E+02  0.14824513850E+02 -0.22818463708E+03  0.23090529068E+03  0.62014822451E+01 0.  0.
         13    1    3    3    0    0 -0.26641585050E+02  0.98557224998E+01 -0.18441950595E+03  0.18659438227E+03  0.00000000000E+00 0.  1.
          1    1    3    3  501    0 -0.48353918395E+01  0.49687913497E+01 -0.43765131124E+02  0.44310908409E+02  0.00000000000E+00 0.  1.
         -1    1    1    2    0  502  0.31476976890E+02 -0.14824513850E+02 -0.77006222725E+03  0.77084784499E+03  0.00000000000E+00 0. -1.
<mgrwt>
<rscale>  1 0.30000000E+03</rscale>
<asrwt>0</asrwt>
<pdfrwt beam="1">  1       21 0.63750522E-02 0.30000000E+03</pdfrwt>
<pdfrwt beam="2">0</pdfrwt>
<totfact> 0.18976845E+04</totfact>
</mgrwt>
</event>
<event>
 6    1  0.1273846E-001  0.3000000E+03  0.7818608E-02  0.1093470E+00
         21   -1    0    0  501  502  0.00000000000E+00  0.00000000000E+00  0.18627309266E+01  0.18627309266E+01  0.00000000000E+00 0. -1.
         13   -1    0    0    0    0 -0.00000000000E+00 -0.00000000000E+00 -0.10000000000E+04  0.10000000000E+04  0.00000000000E+00 0.  1.
    9000005    2    1    2  501    0  0.37894458712E+02  0.59731813936E+01 -0.72790751023E+03  0.72892355920E+03  0.29228092269E+01 0.  0.
         13    1    3    3    0    0  0.35801292649E+02  0.53434651895E+01 -0.69658513076E+03  0.69752500283E+03  0.00000000000E+00 0.  1.
          1    1    3    3  501    0  0.20931660628E+01  0.62971620410E+00 -0.31322379469E+02  0.31398556372E+02  0.00000000000E+00 0.  1.
         -3    1    1    2    0  502 -0.37894458712E+02 -0.59731813936E+01 -0.27022975885E+03  0.27293917173E+03  0.00000000000E+00 0. -1.
<mgrwt>
<rscale>  1 0.30000000E+03</rscale>
<asrwt>0</asrwt>
<pdfrwt beam="1">  1       21 0.67735813E-02 0.30000000E+03</pdfrwt>
<pdfrwt beam="2">0</pdfrwt>
<totfact> 0.17084273E+04</totfact>
</mgrwt>
</event>
<event>
 6    1  0.1273846E-001  0.3000000E+03  0.7818608E-02  0.1093470E+00
         21   -1    0    0  501  502  0.00000000000E+00  0.00000000000E+00  0.20177572500E+01  0.20177572500E+01  0.00000000000E+00 0. -1.
         13   -1    0    0    0    0 -0.00000000000E+00 -0.00000000000E+00 -0.10000000000E+04  0.10000000000E+04  0.00000000000E+00 0.  1.
    9000005    2    1    2  501    0  0.44201979096E+02 -0.75403751002E+01 -0.48466737308E+03  0.48674809228E+03  0.32512456851E+01 0.  0.
         13    1    3    3    0    0  0.27410475167E+02 -0.30701394880E+01 -0.29746207780E+03  0.29873809204E+03  0.00000000000E+00 0.  1.
          1    1    3    3  501    0  0.16791503929E+02 -0.44702356122E+01 -0.18720529528E+03  0.18801000025E+03  0.00000000000E+00 0.  1.
         -1    1    1    2    0  502 -0.44201979096E+02  0.75403751002E+01 -0.51331486967E+03  0.51526966497E+03  0.00000000000E+00 0. -1.
<mgrwt>
<rscale>  1 0.30000000E+03</rscale>
<asrwt>0</asrwt>
<pdfrwt beam="1">  1       21 0.73373146E-02 0.30000000E+03</pdfrwt>
<pdfrwt beam="2">0</pdfrwt>
<totfact> 0.14863930E+04</totfact>
</mgrwt>
</event>
<event>
 6    1  0.1273846E-001  0.3000000E+03  0.7818608E-02  0.1093470E+00
         21   -1    0    0  501  502  0.00000000000E+00  0.00000000000E+00  0.83754170797E+01  0.83754170797E+01  0.00000000000E+00 0. -1.
         13   -1    0    0    0    0 -0.00000000000E+00 -0.00000000000E+00 -0.10000000000E+04  0.10000000000E+04  0.00000000000E+00 0.  1.
    9000005    2    1    2  501    0  0.72897646776E+02  0.37961895733E+02 -0.71550694168E+03  0.72028493783E+03  0.10248689279E+02 0.  0.
         13    1    3    3    0    0  0.19641729080E+02  0.13752334211E+02 -0.17927052997E+03  0.18086693211E+03  0.00000000000E+00 0.  1.
          3    1    3    3  501    0  0.53255917696E+02  0.24209561521E+02 -0.53623641171E+03  0.53941800571E+03  0.00000000000E+00 0.  1.
         -1    1    1    2    0  502 -0.72897646776E+02 -0.37961895733E+02 -0.27611764124E+03  0.28809047925E+03  0.00000000000E+00 0. -1.
<mgrwt>
<rscale>  1 0.30000000E+03</rscale>
<asrwt>0</asrwt>
<pdfrwt beam="1">  1       21 0.30456126E-01 0.30000000E+03</pdfrwt>
<pdfrwt beam="2">0</pdfrwt>
<totfact> 0.10549135E+03</totfact>
</mgrwt>
</event>
<event>
 6    1  0.1273846E-001  0.3000000E+03  0.7818608E-02  0.1093470E+00
         21   -1    0    0  501  502  0.00000000000E+00  0.00000000000E+00  0.19823073032E+01  0.19823073032E+01  0.00000000000E+00 0. -1.
         13   -1    0    0    0    0 -0.00000000000E+00 -0.00000000000E+00 -0.10000000000E+04  0.10000000000E+04  0.00000000000E+00 0.  1.
    9000005    2    1    2  501    0  0.20390505490E+02 -0.28140408359E+02 -0.81164195938E+03  0.81239441406E+03  0.37892565802E+01 0.  0.
         13    1    3    3    0    0  0.58346316189E+01 -0.89337310844E+01 -0.28959250517E+03  0.28978901554E+03  0.00000000000E+00 0.  1.
          3    1    3    3  501    0  0.14555873871E+02 -0.19206677275E+02 -0.52204945422E+03  0.52260539852E+03  0.00000000000E+00 0.  1.
         -1    1    1    2    0  502 -0.20390505490E+02  0.28140408359E+02 -0.18637573331E+03  0.18958789324E+03  0.00000000000E+00 0. -1.
<mgrwt>
<rscale>  1 0.30000000E+03</rscale>
<asrwt>0</asrwt>
<pdfrwt beam="1">  1       21 0.72084054E-02 0.30000000E+03</pdfrwt>
<pdfrwt beam="2">0</pdfrwt>
<totfact> 0.15331175E+04</totfact>
</mgrwt>
</event>
<event>
 6    1  0.1273846E-001  0.3000000E+03  0.7818608E-02  0.1093470E+00
         21   -1    0    0  501  502  0.00000000000E+00  0.00000000000E+00  0.20373166943E+01  0.20373166943E+01  0.00000000000E+00 0. -1.
         13   -1    0    0    0    0 -0.00000000000E+00 -0.00000000000E+00 -0.10000000000E+04  0.10000000000E+04  0.00000000000E+00 0.  1.
    9000005    2    1    2  501    0  0.27214759372E+02 -0.15612645903E+02 -0.85894155393E+03  0.85951969584E+03  0.30193769502E+01 0.  0.
         13    1    3    3    0    0  0.21195062262E+02 -0.12462767131E+02 -0.70405984989E+03  0.70448905134E+03  0.00000000000E+00 0.  1.
          1    1    3    3  501    0  0.60196971102E+01 -0.31498787721E+01 -0.15488170403E+03  0.15503064450E+03  0.00000000000E+00 0.  1.
         -3    1    1    2    0  502 -0.27214759372E+02  0.15612645903E+02 -0.13902112938E+03  0.14251762085E+03  0.00000000000E+00 0. -1.
<mgrwt>
<rscale>  1 0.30000000E+03</rscale>
<asrwt>0</asrwt>
<pdfrwt beam="1">  1       21 0.74084400E-02 0.30000000E+03</pdfrwt>
<pdfrwt beam="2">0</pdfrwt>
<totfact> 0.14615317E+04</totfact>
</mgrwt>
</event>
<event>
 6    1  0.1273846E-001  0.3000000E+03  0.7818608E-02  0.1093470E+00
         21   -1    0    0  501  502  0.00000000000E+00  0.00000000000E+00  0.17121553226E+01  0.17121553226E+01  0.00000000000E+00 0. -1.
         13   -1    0    0    0    0 -0.00000000000E+00 -0.00000000000E+00 -0.10000000000E+04  0.10000000000E+04  0.00000000000E+00 0.  1.
    9000005    2    1    2  501    0 -0.33774604294E+02  0.15760657509E+02 -0.70867271562E+03  0.70970865329E+03  0.89572579604E+01 0.  0.
         13    1    3    3    0    0 -0.32190838367E+02  0.16113600012E+02 -0.69630743845E+03  0.69723736778E+03  0.00000000000E+00 0.  1.
          1    1    3    3  501    0 -0.15837659266E+01 -0.35294250305E+00 -0.12365277165E+02  0.12471285511E+02  0.00000000000E+00 0.  1.
         -3    1    1    2    0  502  0.33774604294E+02 -0.15760657509E+02 -0.28961512906E+03  0.29200350203E+03  0.00000000000E+00 0. -1.
<mgrwt>
<rscale>  1 0.30000000E+03</rscale>
<asrwt>0</asrwt>
<pdfrwt beam="1">  1       21 0.62260325E-02 0.30000000E+03</pdfrwt>
<pdfrwt beam="2">0</pdfrwt>
<totfact> 0.19768751E+04</totfact>
</mgrwt>
</event>
<event>
 6    1  0.1273846E-001  0.3000000E+03  0.7818608E-02  0.1093470E+00
         21   -1    0    0  501  502  0.00000000000E+00  0.00000000000E+00  0.11498178352E+01  0.11498178352E+01  0.00000000000E+00 0. -1.
         13   -1    0    0    0    0 -0.00000000000E+00 -0.00000000000E+00 -0.10000000000E+04  0.10000000000E+04  0.00000000000E+00 0.  1.
    9000005    2    1    2  501    0 -0.28079933547E+02 -0.11305164139E+02 -0.72390221255E+03  0.72454057106E+03  0.28872786964E+01 0.  0.
         13    1    3    3    0    0 -0.23600821467E+02 -0.88601880568E+01 -0.62205413496E+03  0.62256473440E+03  0.00000000000E+00 0.  1.
          1    1    3    3  501    0 -0.44791120795E+01 -0.24449760818E+01 -0.10184807759E+03  0.10197583666E+03  0.00000000000E+00 0.  1.
         -3    1    1    2    0  502  0.28079933547E+02  0.11305164139E+02 -0.27494796962E+03  0.27660924678E+03  0.00000000000E+00 0. -1.
<mgrwt>
<rscale>  1 0.30000000E+03</rscale>
<asrwt>0</asrwt>
<pdfrwt beam="1">  1       21 0.41811646E-02 0.30000000E+03</pdfrwt>
<pdfrwt beam="2">0</pdfrwt>
<totfact> 0.39021467E+04</totfact>
</mgrwt>
</event>
<event>
 6    1  0.1273846E-001  0.3000000E+03  0.7818608E-02  0.1093470E+00
         21   -1    0    0  501  502  0.00000000000E+00  0.00000000000E+00  0.12846232131E+01  0.12846232131E+01  0.00000000000E+00 0. -1.
         13   -1    0    0    0    0 -0.00000000000E+00 -0.00000000000E+00 -0.10000000000E+04  0.10000000000E+04  0.00000000000E+00 0.  1.
    9000005    2    1    2  501    0  0.11340115766E+02  0.28827733672E+02 -0.74929076172E+03  0.74994366942E+03  0.43846601181E+01 0.  0.
         13    1    3    3    0    0  0.42205948825E+01  0.73391442413E+01 -0.24207863939E+03  0.24222663790E+03  0.00000000000E+00 0.  1.
          3    1    3    3  501    0  0.71195208834E+01  0.21488589431E+02 -0.50721212234E+03  0.50771703152E+03  0.00000000000E+00 0.  1.
         -3    1    1    2    0  502 -0.11340115766E+02 -0.28827733672E+02 -0.24942461506E+03  0.25134095379E+03  0.00000000000E+00 0. -1.
<mgrwt>
<rscale>  1 0.30000000E+03</rscale>
<asrwt>0</asrwt>
<pdfrwt beam="1">  1       21 0.46713670E-02 0.30000000E+03</pdfrwt>
<pdfrwt beam="2">0</pdfrwt>
<totfact> 0.32338544E+04</totfact>
</mgrwt>
</event>
<event>
 6    1  0.1273846E-001  0.3000000E+03  0.7818608E-02  0.1093470E+00
         21   -1    0    0  501  502  0.00000000000E+00  0.00000000000E+00  0.34738776023E+01  0.34738776023E+01  0.00000000000E+00 0. -1.
         13   -1    0    0    0    0 -0.00000000000E+00 -0.00000000000E+00 -0.10000000000E+04  0.10000000000E+04  0.00000000000E+00 0.  1.
    9000005    2    1    2  501    0  0.49738297650E+02  0.28372012855E+02 -0.61583355195E+03  0.61849894003E+03  0.33325277683E+01 0.  0.
         13    1    3    3    0    0  0.28471259145E+02  0.14634392560E+02 -0.35342886462E+03  0.35487566892E+03  0.00000000000E+00 0.  1.
          1    1    3    3  501    0  0.21267038505E+02  0.13737620296E+02 -0.26240468734E+03  0.26362327112E+03  0.00000000000E+00 0.  1.
         -3    1    1    2    0  502 -0.49738297650E+02 -0.28372012855E+02 -0.38069257044E+03  0.38497493757E+03  0.00000000000E+00 0. -1.
<mgrwt>
<rscale>  1 0.30000000E+03</rscale>
<asrwt>0</asrwt>
<pdfrwt beam="1">  1       21 0.12632309E-01 0.30000000E+03</pdfrwt>
<pdfrwt beam="2">0</pdfrwt>
<totfact> 0.56443688E+03</totfact>
</mgrwt>
</event>
<event>
 6    1  0.1273846E-001  0.3000000E+03  0.7818608E-02  0.1093470E+00
         21   -1    0    0  501  502  0.00000000000E+00  0.00000000000E+00  0.12316231384E+01  0.12316231384E+01  0.00000000000E+00 0. -1.
         13   -1    0    0    0    0 -0.00000000000E+00 -0.00000000000E+00 -0.10000000000E+04  0.10000000000E+04  0.00000000000E+00 0.  1.
    9000005    2    1    2  501    0 -0.38269383172E+01 -0.33535650406E+02 -0.36692073256E+03  0.36848307046E+03  0.31086861294E+01 0.  0.
         13    1    3    3    0    0 -0.41899089810E+01 -0.31012775984E+02 -0.34424781411E+03  0.34566733304E+03  0.00000000000E+00 0.  1.
          1    1    3    3  501    0  0.36297066380E+00 -0.25228744213E+01 -0.22672918443E+02  0.22815737414E+02  0.00000000000E+00 0.  1.
         -1    1    1    2    0  502  0.38269383172E+01  0.33535650406E+02 -0.63184764430E+03  0.63274855268E+03  0.00000000000E+00 0. -1.
<mgrwt>
<rscale>  1 0.30000000E+03</rscale>
<asrwt>0</asrwt>
<pdfrwt beam="1">  1       21 0.44786390E-02 0.30000000E+03</pdfrwt>
<pdfrwt beam="2">0</pdfrwt>
<totfact> 0.34737483E+04</totfact>
</mgrwt>
</event>
<event>
 6    1  0.1273846E-001  0.3000000E+03  0.7818608E-02  0.1093470E+00
         21   -1    0    0  501  502  0.00000000000E+00  0.00000000000E+00  0.14636452745E+01  0.14636452745E+01  0.00000000000E+00 0. -1.
         13   -1    0    0    0    0 -0.00000000000E+00 -0.00000000000E+00 -0.10000000000E+04  0.10000000000E+04  0.00000000000E+00 0.  1.
    9000005    2    1    2  501    0 -0.19134193167E+02  0.29314252636E+02 -0.69943620369E+03  0.70032191268E+03  0.37862386462E+01 0.  0.
         13    1    3    3    0    0 -0.49728813701E+01  0.10889727469E+02 -0.24032680287E+03  0.24062478652E+03  0.00000000000E+00 0.  1.
          1    1    3    3  501    0 -0.14161311797E+02  0.18424525167E+02 -0.45910940082E+03  0.45969712616E+03  0.00000000000E+00 0.  1.
         -3    1    1    2    0  502  0.19134193167E+02 -0.29314252636E+02 -0.29910015104E+03  0.30114173259E+03  0.00000000000E+00 0. -1.
<mgrwt>
<rscale>  1 0.30000000E+03</rscale>
<asrwt>0</asrwt>
<pdfrwt beam="1">  1       21 0.53223577E-02 0.30000000E+03</pdfrwt>
<pdfrwt beam="2">0</pdfrwt>
<totfact> 0.25889768E+04</totfact>
</mgrwt>
</event>
<event>
 6    1  0.1273846E-001  0.3000000E+03  0.7818608E-02  0.1093470E+00
         21   -1    0    0  501  502  0.00000000000E+00  0.00000000000E+00  0.17111436779E+01  0.17111436779E+01  0.00000000000E+00 0. -1.
         13   -1    0    0    0    0 -0.00000000000E+00 -0.00000000000E+00 -0.10000000000E+04  0.10000000000E+04  0.00000000000E+00 0.  1.
    9000005    2    1    2  501    0 -0.34371548564E+02 -0.22905827286E+02 -0.50570716638E+03  0.50740071334E+03  0.31089380427E+01 0.  0.
         13    1    3    3    0    0 -0.30680426967E+02 -0.19249496453E+02 -0.43914573874E+03  0.44063682502E+03  0.00000000000E+00 0.  1.
          3    1    3    3  501    0 -0.36911215971E+01 -0.36563308333E+01 -0.66561427636E+02  0.66763888314E+02  0.00000000000E+00 0.  1.
         -3    1    1    2    0  502  0.34371548564E+02  0.22905827286E+02 -0.49258168994E+03  0.49431043034E+03  0.00000000000E+00 0. -1.
<mgrwt>
<rscale>  1 0.30000000E+03</rscale>
<asrwt>0</asrwt>
<pdfrwt beam="1">  1       21 0.62223538E-02 0.30000000E+03</pdfrwt>
<pdfrwt beam="2">0</pdfrwt>
<totfact> 0.19788945E+04</totfact>
</mgrwt>
</event>
<event>
 6    1  0.1273846E-001  0.3000000E+03  0.7818608E-02  0.1093470E+00
         21   -1    0    0  501  502  0.00000000000E+00  0.00000000000E+00  0.15164101045E+01  0.15164101045E+01  0.00000000000E+00 0. -1.
         13   -1    0    0    0    0 -0.00000000000E+00 -0.00000000000E+00 -0.10000000000E+04  0.10000000000E+04  0.00000000000E+00 0.  1.
    9000005    2    1    2  501    0 -0.15747762385E+02  0.25620991914E+02 -0.81677727252E+03  0.81733820015E+03  0.34918873528E+01 0.  0.
         13    1    3    3    0    0 -0.79817015857E+00  0.19928534552E+01 -0.84640214823E+02  0.84667434742E+02  0.00000000000E+00 0.  1.
          3    1    3    3  501    0 -0.14949592226E+02  0.23628138459E+02 -0.73213705770E+03  0.73267076541E+03  0.00000000000E+00 0.  1.
         -1    1    1    2    0  502  0.15747762385E+02 -0.25620991914E+02 -0.18170631737E+03  0.18417820995E+03  0.00000000000E+00 0. -1.
<mgrwt>
<rscale>  1 0.30000000E+03</rscale>
<asrwt>0</asrwt>
<pdfrwt beam="1">  1       21 0.55142302E-02 0.30000000E+03</pdfrwt>
<pdfrwt beam="2">0</pdfrwt>
<totfact> 0.24365942E+04</totfact>
</mgrwt>
</event>
<event>
 6    1  0.1273846E-001  0.3000000E+03  0.7818608E-02  0.1093470E+00
         21   -1    0    0  501  502  0.00000000000E+00  0.00000000000E+00  0.46150186473E+01  0.46150186473E+01  0.00000000000E+00 0. -1.
         13   -1    0    0    0    0 -0.00000000000E+00 -0.00000000000E+00 -0.10000000000E+04  0.10000000000E+04  0.00000000000E+00 0.  1.
    9000005    2    1    2  501    0  0.29674234216E+02  0.55954522734E+02 -0.67877658107E+03  0.68173369692E+03  0.34231150759E+01 0.  0.
         13    1    3    3    0    0  0.12223830249E+01  0.40421288086E+01 -0.42624479770E+02  0.42833156564E+02  0.00000000000E+00 0.  1.
          1    1    3    3  501    0  0.28451851191E+02  0.51912393925E+02 -0.63615210130E+03  0.63890054036E+03  0.00000000000E+00 0.  1.
         -3    1    1    2    0  502 -0.29674234216E+02 -0.55954522734E+02 -0.31660840028E+03  0.32288132173E+03  0.00000000000E+00 0. -1.
<mgrwt>
<rscale>  1 0.30000000E+03</rscale>
<asrwt>0</asrwt>
<pdfrwt beam="1">  1       21 0.16781921E-01 0.30000000E+03</pdfrwt>
<pdfrwt beam="2">0</pdfrwt>
<totfact> 0.33413068E+03</totfact>
</mgrwt>
</event>
<event>
 6    1  0.1273846E-001  0.3000000E+03  0.7818608E-02  0.1093470E+00
         21   -1    0    0  501  502  0.00000000000E+00  0.00000000000E+00  0.18367839258E+01  0.18367839258E+01  0.00000000000E+00 0. -1.
         13   -1    0    0    0    0 -0.00000000000E+00 -0.00000000000E+00 -0.10000000000E+04  0.10000000000E+04  0.00000000000E+00 0.  1.
    9000005    2    1    2  501    0 -0.35640876557E+02  0.58011586954E+01 -0.76845115907E+03  0.76930387301E+03  0.27091759978E+01 0.  0.
         13    1    3    3    0    0 -0.11092624065E+02  0.27466213160E+01 -0.26124855938E+03  0.26149837478E+03  0.00000000000E+00 0.  1.
          1    1    3    3  501    0 -0.24548252493E+02  0.30545373794E+01 -0.50720259969E+03  0.50780549823E+03  0.00000000000E+00 0.  1.
         -1    1    1    2    0  502  0.35640876557E+02 -0.58011586954E+01 -0.22971205701E+03  0.23253291091E+03  0.00000000000E+00 0. -1.
<mgrwt>
<rscale>  1 0.30000000E+03</rscale>
<asrwt>0</asrwt>
<pdfrwt beam="1">  1       21 0.66792284E-02 0.30000000E+03</pdfrwt>
<pdfrwt beam="2">0</pdfrwt>
<totfact> 0.17505207E+04</totfact>
</mgrwt>
</event>
<event>
 6    1  0.1273846E-001  0.3000000E+03  0.7818608E-02  0.1093470E+00
         21   -1    0    0  501  502  0.00000000000E+00  0.00000000000E+00  0.12499477000E+01  0.12499477000E+01  0.00000000000E+00 0. -1.
         13   -1    0    0    0    0 -0.00000000000E+00 -0.00000000000E+00 -0.10000000000E+04  0.10000000000E+04  0.00000000000E+00 0.  1.
    9000005    2    1    2  501    0  0.29356447232E+02  0.13134791782E+02 -0.70606833525E+03  0.70680655544E+03  0.29477149557E+01 0.  0.
         13    1    3    3    0    0  0.28446158492E+02  0.12497075753E+02 -0.66828648937E+03  0.66900836521E+03  0.00000000000E+00 0.  1.
          3    1    3    3  501    0  0.91028873952E+00  0.63771602909E+00 -0.37781845873E+02  0.37798190233E+02  0.00000000000E+00 0.  1.
         -1    1    1    2    0  502 -0.29356447232E+02 -0.13134791782E+02 -0.29268171705E+03  0.29444339226E+03  0.00000000000E+00 0. -1.
<mgrwt>
<rscale>  1 0.30000000E+03</rscale>
<asrwt>0</asrwt>
<pdfrwt beam="1">  1       21 0.45452739E-02 0.30000000E+03</pdfrwt>
<pdfrwt beam="2">0</pdfrwt>
<totfact> 0.33877556E+04</totfact>
</mgrwt>
</event>
<event>
 6    1  0.1273846E-001  0.3000000E+03  0.7818608E-02  0.1093470E+00
         21   -1    0    0  501  502  0.00000000000E+00  0.00000000000E+00  0.12493269122E+01  0.12493269122E+01  0.00000000000E+00 0. -1.
         13   -1    0    0    0    0 -0.00000000000E+00 -0.00000000000E+00 -0.10000000000E+04  0.10000000000E+04  0.00000000000E+00 0.  1.
    9000005    2    1    2  501    0 -0.22888445091E+02  0.22798298023E+02 -0.70106930203E+03  0.70182013330E+03  0.31128680233E+01 0.  0.
         13    1    3    3    0    0 -0.69665539954E+01  0.61152897373E+01 -0.22986895893E+03  0.23005579307E+03  0.00000000000E+00 0.  1.
          1    1    3    3  501    0 -0.15921891096E+02  0.16683008286E+02 -0.47120034310E+03  0.47176434024E+03  0.00000000000E+00 0.  1.
         -1    1    1    2    0  502  0.22888445091E+02 -0.22798298023E+02 -0.29768137106E+03  0.29942919361E+03  0.00000000000E+00 0. -1.
<mgrwt>
<rscale>  1 0.30000000E+03</rscale>
<asrwt>0</asrwt>
<pdfrwt beam="1">  1       21 0.45430165E-02 0.30000000E+03</pdfrwt>
<pdfrwt beam="2">0</pdfrwt>
<totfact> 0.33906149E+04</totfact>
</mgrwt>
</event>
<event>
 6    1  0.1273846E-001  0.3000000E+03  0.7818608E-02  0.1093470E+00
         21   -1    0    0  501  502  0.00000000000E+00  0.00000000000E+00  0.26115453679E+01  0.26115453679E+01  0.00000000000E+00 0. -1.
         13   -1    0    0    0    0 -0.00000000000E+00 -0.00000000000E+00 -0.10000000000E+04  0.10000000000E+04  0.00000000000E+00 0.  1.
    9000005    2    1    2  501    0  0.43916656342E+02  0.74227670454E+01 -0.74400120515E+03  0.74533957181E+03  0.30844572350E+01 0.  0.
         13    1    3    3    0    0  0.34445502761E+02  0.60252482657E+01 -0.60401112044E+03  0.60502250363E+03  0.00000000000E+00 0.  1.
          1    1    3    3  501    0  0.94711535808E+01  0.13975187796E+01 -0.13999008471E+03  0.14031706819E+03  0.00000000000E+00 0.  1.
         -3    1    1    2    0  502 -0.43916656342E+02 -0.74227670454E+01 -0.25338724949E+03  0.25727197355E+03  0.00000000000E+00 0. -1.
<mgrwt>
<rscale>  1 0.30000000E+03</rscale>
<asrwt>0</asrwt>
<pdfrwt beam="1">  1       21 0.94965486E-02 0.30000000E+03</pdfrwt>
<pdfrwt beam="2">0</pdfrwt>
<totfact> 0.94338282E+03</totfact>
</mgrwt>
</event>
<event>
 6    1  0.1273846E-001  0.3000000E+03  0.7818608E-02  0.1093470E+00
         21   -1    0    0  501  502  0.00000000000E+00  0.00000000000E+00  0.13128066390E+01  0.13128066390E+01  0.00000000000E+00 0. -1.
         13   -1    0    0    0    0 -0.00000000000E+00 -0.00000000000E+00 -0.10000000000E+04  0.10000000000E+04  0.00000000000E+00 0.  1.
    9000005    2    1    2  501    0  0.27664723889E+02 -0.23023203501E+02 -0.45958646424E+03  0.46101196360E+03  0.41118881994E+01 0.  0.
         13    1    3    3    0    0  0.19597447083E+02 -0.18118945416E+02 -0.32426524227E+03  0.32536180393E+03  0.00000000000E+00 0.  1.
          3    1    3    3  501    0  0.80672768060E+01 -0.49042580846E+01 -0.13532122197E+03  0.13565015966E+03  0.00000000000E+00 0.  1.
         -3    1    1    2    0  502 -0.27664723889E+02  0.23023203501E+02 -0.53910072913E+03  0.54030084304E+03  0.00000000000E+00 0. -1.
<mgrwt>
<rscale>  1 0.30000000E+03</rscale>
<asrwt>0</asrwt>
<pdfrwt beam="1">  1       21 0.47738524E-02 0.30000000E+03</pdfrwt>
<pdfrwt beam="2">0</pdfrwt>
<totfact> 0.31166854E+04</totfact>
</mgrwt>
</event>
<event>
 6    1  0.1273846E-001  0.3000000E+03  0.7818608E-02  0.1093470E+00
         21   -1    0    0  501  502  0.00000000000E+00  0.00000000000E+00  0.13382769820E+01  0.13382769820E+01  0.00000000000E+00 0. -1.
         13   -1    0    0    0    0 -0.00000000000E+00 -0.00000000000E+00 -0.10000000000E+04  0.10000000000E+04  0.00000000000E+00 0.  1.
    9000005    2    1    2  501    0  0.29375634690E+02 -0.17682535077E+02 -0.66761344832E+03  0.66851916674E+03  0.58787723224E+01 0.  0.
         13    1    3    3    0    0  0.25854452897E+02 -0.17579033687E+02 -0.59966153537E+03  0.60047600466E+03  0.00000000000E+00 0.  1.
          3    1    3    3  501    0  0.35211817934E+01 -0.10350139037E+00 -0.67951912941E+02  0.68043162082E+02  0.00000000000E+00 0.  1.
         -1    1    1    2    0  502 -0.29375634690E+02  0.17682535077E+02 -0.33104827470E+03  0.33281911024E+03  0.00000000000E+00 0. -1.
<mgrwt>
<rscale>  1 0.30000000E+03</rscale>
<asrwt>0</asrwt>
<pdfrwt beam="1">  1       21 0.48664720E-02 0.30000000E+03</pdfrwt>
<pdfrwt beam="2">0</pdfrwt>
<totfact> 0.30164089E+04</totfact>
</mgrwt>
</event>
<event>
 6    1  0.1273846E-001  0.3000000E+03  0.7818608E-02  0.1093470E+00
         21   -1    0    0  501  502  0.00000000000E+00  0.00000000000E+00  0.67963559327E+01  0.67963559327E+01  0.00000000000E+00 0. -1.
         13   -1    0    0    0    0 -0.00000000000E+00 -0.00000000000E+00 -0.10000000000E+04  0.10000000000E+04  0.00000000000E+00 0.  1.
    9000005    2    1    2  501    0 -0.49624891643E+02  0.15286387422E+02 -0.88750581252E+03  0.88903246034E+03  0.39805493028E+01 0.  0.
         13    1    3    3    0    0 -0.49185271729E+01  0.27541825604E+01 -0.90443621784E+02  0.90619126858E+02  0.00000000000E+00 0.  1.
          1    1    3    3  501    0 -0.44706364470E+02  0.12532204862E+02 -0.79706219074E+03  0.79841333348E+03  0.00000000000E+00 0.  1.
         -1    1    1    2    0  502  0.49624891643E+02 -0.15286387422E+02 -0.10569783155E+03  0.11776389559E+03  0.00000000000E+00 0. -1.
<mgrwt>
<rscale>  1 0.30000000E+03</rscale>
<asrwt>0</asrwt>
<pdfrwt beam="1">  1       21 0.24714074E-01 0.30000000E+03</pdfrwt>
<pdfrwt beam="2">0</pdfrwt>
<totfact> 0.15950773E+03</totfact>
</mgrwt>
</event>
<event>
 6    1  0.1273846E-001  0.3000000E+03  0.7818608E-02  0.1093470E+00
         21   -1    0    0  501  502  0.00000000000E+00  0.00000000000E+00  0.14555319197E+01  0.14555319197E+01  0.00000000000E+00 0. -1.
         13   -1    0    0    0    0 -0.00000000000E+00 -0.00000000000E+00 -0.10000000000E+04  0.10000000000E+04  0.00000000000E+00 0.  1.
    9000005    2    1    2  501    0 -0.32328726852E+02  0.28582409081E+01 -0.23854901005E+03  0.24076741427E+03  0.31625074035E+01 0.  0.
         13    1    3    3    0    0 -0.21647617641E+02  0.25853409624E+01 -0.16958523362E+03  0.17098086091E+03  0.00000000000E+00 0.  1.
          1    1    3    3  501    0 -0.10681109211E+02  0.27289994565E+00 -0.68963776439E+02  0.69786553354E+02  0.00000000000E+00 0.  1.
         -3    1    1    2    0  502  0.32328726852E+02 -0.28582409081E+01 -0.75999545803E+03  0.76068811765E+03  0.00000000000E+00 0. -1.
<mgrwt>
<rscale>  1 0.30000000E+03</rscale>
<asrwt>0</asrwt>
<pdfrwt beam="1">  1       21 0.52928545E-02 0.30000000E+03</pdfrwt>
<pdfrwt beam="2">0</pdfrwt>
<totfact> 0.26137101E+04</totfact>
</mgrwt>
</event>
<event>
 6    1  0.1273846E-001  0.3000000E+03  0.7818608E-02  0.1093470E+00
         21   -1    0    0  501  502  0.00000000000E+00  0.00000000000E+00  0.20772622257E+01  0.20772622257E+01  0.00000000000E+00 0. -1.
         13   -1    0    0    0    0 -0.00000000000E+00 -0.00000000000E+00 -0.10000000000E+04  0.10000000000E+04  0.00000000000E+00 0.  1.
    9000005    2    1    2  501    0 -0.46421426459E+01 -0.33432287628E+02 -0.83531864139E+03  0.83600691717E+03  0.33264945923E+01 0.  0.
         13    1    3    3    0    0 -0.35651371918E+00 -0.14933881296E+01 -0.24423579134E+02  0.24471790451E+02  0.00000000000E+00 0.  1.
          1    1    3    3  501    0 -0.42856289267E+01 -0.31938899498E+02 -0.81089506225E+03  0.81153512672E+03  0.00000000000E+00 0.  1.
         -3    1    1    2    0  502  0.46421426459E+01  0.33432287628E+02 -0.16260409639E+03  0.16607034506E+03  0.00000000000E+00 0. -1.
<mgrwt>
<rscale>  1 0.30000000E+03</rscale>
<asrwt>0</asrwt>
<pdfrwt beam="1">  1       21 0.75536967E-02 0.30000000E+03</pdfrwt>
<pdfrwt beam="2">0</pdfrwt>
<totfact> 0.14126873E+04</totfact>
</mgrwt>
</event>
<event>
 6    1  0.1273846E-001  0.3000000E+03  0.7818608E-02  0.1093470E+00
         21   -1    0    0  501  502  0.00000000000E+00  0.00000000000E+00  0.16560301423E+01  0.16560301423E+01  0.00000000000E+00 0. -1.
         13   -1    0    0    0    0 -0.00000000000E+00 -0.00000000000E+00 -0.10000000000E+04  0.10000000000E+04  0.00000000000E+00 0.  1.
    9000005    2    1    2  501    0  0.40472358685E+02  0.15979740382E+01 -0.54376968191E+03  0.54528080228E+03  0.22629709897E+01 0.  0.
         13    1    3    3    0    0  0.38434573826E+02  0.12217660344E+01 -0.51006252311E+03  0.51151000641E+03  0.00000000000E+00 0.  1.
          3    1    3    3  501    0  0.20377848588E+01  0.37620800375E+00 -0.33707158802E+02  0.33770795876E+02  0.00000000000E+00 0.  1.
         -1    1    1    2    0  502 -0.40472358685E+02 -0.15979740382E+01 -0.45457428795E+03  0.45637522786E+03  0.00000000000E+00 0. -1.
<mgrwt>
<rscale>  1 0.30000000E+03</rscale>
<asrwt>0</asrwt>
<pdfrwt beam="1">  1       21 0.60219405E-02 0.30000000E+03</pdfrwt>
<pdfrwt beam="2">0</pdfrwt>
<totfact> 0.20939425E+04</totfact>
</mgrwt>
</event>
<event>
 6    1  0.1273846E-001  0.3000000E+03  0.7818608E-02  0.1093470E+00
         21   -1    0    0  501  502  0.00000000000E+00  0.00000000000E+00  0.47354913096E+01  0.47354913096E+01  0.00000000000E+00 0. -1.
         13   -1    0    0    0    0 -0.00000000000E+00 -0.00000000000E+00 -0.10000000000E+04  0.10000000000E+04  0.00000000000E+00 0.  1.
    9000005    2    1    2  501    0 -0.27918397150E+02  0.24761929084E+02 -0.91956638873E+03  0.92033883618E+03  0.53516418150E+01 0.  0.
         13    1    3    3    0    0 -0.27974598325E+02  0.23926583242E+02 -0.90507719699E+03  0.90582547549E+03  0.00000000000E+00 0.  1.
          1    1    3    3  501    0  0.56201175259E-01  0.83534584257E+00 -0.14489191735E+02  0.14513360686E+02  0.00000000000E+00 0.  1.
         -1    1    1    2    0  502  0.27918397150E+02 -0.24761929084E+02 -0.75698119964E+02  0.84396655132E+02  0.00000000000E+00 0. -1.
<mgrwt>
<rscale>  1 0.30000000E+03</rscale>
<asrwt>0</asrwt>
<pdfrwt beam="1">  1       21 0.17220005E-01 0.30000000E+03</pdfrwt>
<pdfrwt beam="2">0</pdfrwt>
<totfact> 0.31838671E+03</totfact>
</mgrwt>
</event>
<event>
 6    1  0.1273846E-001  0.3000000E+03  0.7818608E-02  0.1093470E+00
         21   -1    0    0  501  502  0.00000000000E+00  0.00000000000E+00  0.12916582346E+01  0.12916582346E+01  0.00000000000E+00 0. -1.
         13   -1    0    0    0    0 -0.00000000000E+00 -0.00000000000E+00 -0.10000000000E+04  0.10000000000E+04  0.00000000000E+00 0.  1.
    9000005    2    1    2  501    0 -0.16266644497E+02  0.25458118372E+02 -0.76806457112E+03  0.76867766800E+03  0.54270029980E+01 0.  0.
         13    1    3    3    0    0 -0.11137583873E+02  0.21007923782E+02 -0.56664513263E+03  0.56714379567E+03  0.00000000000E+00 0.  1.
          3    1    3    3  501    0 -0.51290606239E+01  0.44501945903E+01 -0.20141943848E+03  0.20153387232E+03  0.00000000000E+00 0.  1.
         -3    1    1    2    0  502  0.16266644497E+02 -0.25458118372E+02 -0.23064377065E+03  0.23261399024E+03  0.00000000000E+00 0. -1.
<mgrwt>
<rscale>  1 0.30000000E+03</rscale>
<asrwt>0</asrwt>
<pdfrwt beam="1">  1       21 0.46969489E-02 0.30000000E+03</pdfrwt>
<pdfrwt beam="2">0</pdfrwt>
<totfact> 0.32039687E+04</totfact>
</mgrwt>
</event>
<event>
 6    1  0.1273846E-001  0.3000000E+03  0.7818608E-02  0.1093470E+00
         21   -1    0    0  501  502  0.00000000000E+00  0.00000000000E+00  0.41073552588E+01  0.41073552588E+01  0.00000000000E+00 0. -1.
         13   -1    0    0    0    0 -0.00000000000E+00 -0.00000000000E+00 -0.10000000000E+04  0.10000000000E+04  0.00000000000E+00 0.  1.
    9000005    2    1    2  501    0  0.19310053718E+02  0.47359708013E+02 -0.80023769373E+03  0.80187807950E+03  0.35025423371E+01 0.  0.
         13    1    3    3    0    0  0.15062867713E+01  0.40055853012E+01 -0.83624130020E+02  0.83733557998E+02  0.00000000000E+00 0.  1.
          3    1    3    3  501    0  0.17803766947E+02  0.43354122712E+02 -0.71661356371E+03  0.71814452151E+03  0.00000000000E+00 0.  1.
         -3    1    1    2    0  502 -0.19310053718E+02 -0.47359708013E+02 -0.19565495101E+03  0.20222927576E+03  0.00000000000E+00 0. -1.
<mgrwt>
<rscale>  1 0.30000000E+03</rscale>
<asrwt>0</asrwt>
<pdfrwt beam="1">  1       21 0.14935869E-01 0.30000000E+03</pdfrwt>
<pdfrwt beam="2">0</pdfrwt>
<totfact> 0.41508146E+03</totfact>
</mgrwt>
</event>
<event>
 6    1  0.1273846E-001  0.3000000E+03  0.7818608E-02  0.1093470E+00
         21   -1    0    0  501  502  0.00000000000E+00  0.00000000000E+00  0.22851348414E+01  0.22851348414E+01  0.00000000000E+00 0. -1.
         13   -1    0    0    0    0 -0.00000000000E+00 -0.00000000000E+00 -0.10000000000E+04  0.10000000000E+04  0.00000000000E+00 0.  1.
    9000005    2    1    2  501    0 -0.16766686377E+02  0.41004340223E+02 -0.68609840465E+03  0.68753555796E+03  0.34124627899E+01 0.  0.
         13    1    3    3    0    0 -0.11229688481E+02  0.31155542809E+02 -0.50368042533E+03  0.50476801069E+03  0.00000000000E+00 0.  1.
          1    1    3    3  501    0 -0.55369978964E+01  0.98487974137E+01 -0.18241797932E+03  0.18276754727E+03  0.00000000000E+00 0.  1.
         -3    1    1    2    0  502  0.16766686377E+02 -0.41004340223E+02 -0.31161646051E+03  0.31474957689E+03  0.00000000000E+00 0. -1.
<mgrwt>
<rscale>  1 0.30000000E+03</rscale>
<asrwt>0</asrwt>
<pdfrwt beam="1">  1       21 0.83095988E-02 0.30000000E+03</pdfrwt>
<pdfrwt beam="2">0</pdfrwt>
<totfact> 0.11948827E+04</totfact>
</mgrwt>
</event>
<event>
 6    1  0.1273846E-001  0.3000000E+03  0.7818608E-02  0.1093470E+00
         21   -1    0    0  501  502  0.00000000000E+00  0.00000000000E+00  0.10245770771E+01  0.10245770771E+01  0.00000000000E+00 0. -1.
         13   -1    0    0    0    0 -0.00000000000E+00 -0.00000000000E+00 -0.10000000000E+04  0.10000000000E+04  0.00000000000E+00 0.  1.
    9000005    2    1    2  501    0 -0.24852912886E+01  0.31500090247E+02 -0.56762357308E+03  0.56851694625E+03  0.40700248189E+01 0.  0.
         13    1    3    3    0    0 -0.35793798062E+01  0.24826387808E+02 -0.45362762106E+03  0.45432056973E+03  0.00000000000E+00 0.  1.
          1    1    3    3  501    0  0.10940885176E+01  0.66737024387E+01 -0.11399595202E+03  0.11419637652E+03  0.00000000000E+00 0.  1.
         -1    1    1    2    0  502  0.24852912886E+01 -0.31500090247E+02 -0.43135184984E+03  0.43250763082E+03  0.00000000000E+00 0. -1.
<mgrwt>
<rscale>  1 0.30000000E+03</rscale>
<asrwt>0</asrwt>
<pdfrwt beam="1">  1       21 0.37257427E-02 0.30000000E+03</pdfrwt>
<pdfrwt beam="2">0</pdfrwt>
<totfact> 0.47380759E+04</totfact>
</mgrwt>
</event>
<event>
 6    1  0.1273846E-001  0.3000000E+03  0.7818608E-02  0.1093470E+00
         21   -1    0    0  501  502  0.00000000000E+00  0.00000000000E+00  0.11993854706E+01  0.11993854706E+01  0.00000000000E+00 0. -1.
         13   -1    0    0    0    0 -0.00000000000E+00 -0.00000000000E+00 -0.10000000000E+04  0.10000000000E+04  0.00000000000E+00 0.  1.
    9000005    2    1    2  501    0  0.31734018754E+02 -0.11079861651E+02 -0.61631698011E+03  0.61724165097E+03  0.32900525443E+01 0.  0.
         13    1    3    3    0    0  0.82684695225E+01 -0.13846242334E+01 -0.15375938184E+03  0.15398776664E+03  0.00000000000E+00 0.  1.
          3    1    3    3  501    0  0.23465549231E+02 -0.96952374176E+01 -0.46255759827E+03  0.46325388433E+03  0.00000000000E+00 0.  1.
         -3    1    1    2    0  502 -0.31734018754E+02  0.11079861651E+02 -0.38248363442E+03  0.38395773450E+03  0.00000000000E+00 0. -1.
<mgrwt>
<rscale>  1 0.30000000E+03</rscale>
<asrwt>0</asrwt>
<pdfrwt beam="1">  1       21 0.43614109E-02 0.30000000E+03</pdfrwt>
<pdfrwt beam="2">0</pdfrwt>
<totfact> 0.36334390E+04</totfact>
</mgrwt>
</event>
<event>
 6    1  0.1273846E-001  0.3000000E+03  0.7818608E-02  0.1093470E+00
         21   -1    0    0  501  502  0.00000000000E+00  0.00000000000E+00  0.19290886538E+01  0.19290886538E+01  0.00000000000E+00 0. -1.
         13   -1    0    0    0    0 -0.00000000000E+00 -0.00000000000E+00 -0.10000000000E+04  0.10000000000E+04  0.00000000000E+00 0.  1.
    9000005    2    1    2  501    0  0.13848365890E+02 -0.35953909414E+02 -0.73379772048E+03  0.73486209285E+03  0.88735606177E+01 0.  0.
         13    1    3    3    0    0  0.59971654534E+00 -0.11141977066E+02 -0.24781459876E+03  0.24806567411E+03  0.00000000000E+00 0.  1.
          1    1    3    3  501    0  0.13248649345E+02 -0.24811932348E+02 -0.48598312172E+03  0.48679641873E+03  0.00000000000E+00 0.  1.
         -3    1    1    2    0  502 -0.13848365890E+02  0.35953909414E+02 -0.26427319086E+03  0.26706699581E+03  0.00000000000E+00 0. -1.
<mgrwt>
<rscale>  1 0.30000000E+03</rscale>
<asrwt>0</asrwt>
<pdfrwt beam="1">  1       21 0.70148826E-02 0.30000000E+03</pdfrwt>
<pdfrwt beam="2">0</pdfrwt>
<totfact> 0.16075753E+04</totfact>
</mgrwt>
</event>
<event>
 6    1  0.1273846E-001  0.3000000E+03  0.7818608E-02  0.1093470E+00
         21   -1    0    0  501  502  0.00000000000E+00  0.00000000000E+00  0.17595393029E+01  0.17595393029E+01  0.00000000000E+00 0. -1.
         13   -1    0    0    0    0 -0.00000000000E+00 -0.00000000000E+00 -0.10000000000E+04  0.10000000000E+04  0.00000000000E+00 0.  1.
    9000005    2    1    2  501    0  0.31887580897E+02 -0.19512162316E+01 -0.82328411527E+03  0.82391031140E+03  0.32926761095E+01 0.  0.
         13    1    3    3    0    0  0.12355844094E+02 -0.19344533067E+01 -0.34987829096E+03  0.35010173876E+03  0.00000000000E+00 0.  1.
          3    1    3    3  501    0  0.19531736803E+02 -0.16762924855E-01 -0.47340582431E+03  0.47380857265E+03  0.00000000000E+00 0.  1.
         -3    1    1    2    0  502 -0.31887580897E+02  0.19512162316E+01 -0.17495634542E+03  0.17784922790E+03  0.00000000000E+00 0. -1.
<mgrwt>
<rscale>  1 0.30000000E+03</rscale>
<asrwt>0</asrwt>
<pdfrwt beam="1">  1       21 0.63983382E-02 0.30000000E+03</pdfrwt>
<pdfrwt beam="2">0</pdfrwt>
<totfact> 0.18857546E+04</totfact>
</mgrwt>
</event>
<event>
 6    1  0.1273846E-001  0.3000000E+03  0.7818608E-02  0.1093470E+00
         21   -1    0    0  501  502  0.00000000000E+00  0.00000000000E+00  0.99504036850E+00  0.99504036850E+00  0.00000000000E+00 0. -1.
         13   -1    0    0    0    0 -0.00000000000E+00 -0.00000000000E+00 -0.10000000000E+04  0.10000000000E+04  0.00000000000E+00 0.  1.
    9000005    2    1    2  501    0  0.29713128932E+02 -0.86940428655E+01 -0.58933865780E+03  0.59016060259E+03  0.33206707475E+01 0.  0.
         13    1    3    3    0    0  0.49724603003E+01 -0.19831569572E+00 -0.92160141718E+02  0.92294400762E+02  0.00000000000E+00 0.  1.
          3    1    3    3  501    0  0.24740668631E+02 -0.84957271698E+01 -0.49717851608E+03  0.49786620182E+03  0.00000000000E+00 0.  1.
         -1    1    1    2    0  502 -0.29713128932E+02  0.86940428655E+01 -0.40966630183E+03  0.41083443778E+03  0.00000000000E+00 0. -1.
<mgrwt>
<rscale>  1 0.30000000E+03</rscale>
<asrwt>0</asrwt>
<pdfrwt beam="1">  1       21 0.36183362E-02 0.30000000E+03</pdfrwt>
<pdfrwt beam="2">0</pdfrwt>
<totfact> 0.49764488E+04</totfact>
</mgrwt>
</event>
<event>
 6    1  0.1273846E-001  0.3000000E+03  0.7818608E-02  0.1093470E+00
         21   -1    0    0  501  502  0.00000000000E+00  0.00000000000E+00  0.30416406016E+01  0.30416406016E+01  0.00000000000E+00 0. -1.
         13   -1    0    0    0    0 -0.00000000000E+00 -0.00000000000E+00 -0.10000000000E+04  0.10000000000E+04  0.00000000000E+00 0.  1.
    9000005    2    1    2  501    0 -0.37147813922E+02 -0.19086542055E+02 -0.82577559440E+03  0.82683779502E+03  0.33392802772E+01 0.  0.
         13    1    3    3    0    0 -0.22089349364E+02 -0.12941060328E+02 -0.48898362237E+03  0.48965333997E+03  0.00000000000E+00 0.  1.
          1    1    3    3  501    0 -0.15058464558E+02 -0.61454817267E+01 -0.33679197203E+03  0.33718445504E+03  0.00000000000E+00 0.  1.
         -1    1    1    2    0  502  0.37147813922E+02  0.19086542055E+02 -0.17118276500E+03  0.17620384559E+03  0.00000000000E+00 0. -1.
<mgrwt>
<rscale>  1 0.30000000E+03</rscale>
<asrwt>0</asrwt>
<pdfrwt beam="1">  1       21 0.11060535E-01 0.30000000E+03</pdfrwt>
<pdfrwt beam="2">0</pdfrwt>
<totfact> 0.71807537E+03</totfact>
</mgrwt>
</event>
<event>
 6    1  0.1273846E-001  0.3000000E+03  0.7818608E-02  0.1093470E+00
         21   -1    0    0  501  502  0.00000000000E+00  0.00000000000E+00  0.36730336155E+01  0.36730336155E+01  0.00000000000E+00 0. -1.
         13   -1    0    0    0    0 -0.00000000000E+00 -0.00000000000E+00 -0.10000000000E+04  0.10000000000E+04  0.00000000000E+00 0.  1.
    9000005    2    1    2  501    0  0.24056445601E+01 -0.53096344890E+02 -0.73891526833E+03  0.74083127274E+03  0.31924798266E+01 0.  0.
         13    1    3    3    0    0 -0.44079326824E+00 -0.25478648191E+02 -0.35450353624E+03  0.35541822269E+03  0.00000000000E+00 0.  1.
          3    1    3    3  501    0  0.28464378284E+01 -0.27617696700E+02 -0.38441173209E+03  0.38541305005E+03  0.00000000000E+00 0.  1.
         -3    1    1    2    0  502 -0.24056445601E+01  0.53096344890E+02 -0.25741169805E+03  0.26284176088E+03  0.00000000000E+00 0. -1.
<mgrwt>
<rscale>  1 0.30000000E+03</rscale>
<asrwt>0</asrwt>
<pdfrwt beam="1">  1       21 0.13356514E-01 0.30000000E+03</pdfrwt>
<pdfrwt beam="2">0</pdfrwt>
<totfact> 0.50980578E+03</totfact>
</mgrwt>
</event>
<event>
 6    1  0.1273846E-001  0.3000000E+03  0.7818608E-02  0.1093470E+00
         21   -1    0    0  501  502  0.00000000000E+00  0.00000000000E+00  0.17403466739E+01  0.17403466739E+01  0.00000000000E+00 0. -1.
         13   -1    0    0    0    0 -0.00000000000E+00 -0.00000000000E+00 -0.10000000000E+04  0.10000000000E+04  0.00000000000E+00 0.  1.
    9000005    2    1    2  501    0  0.28154845439E+02  0.15536914560E+02 -0.81723708970E+03  0.81788371890E+03  0.48193173308E+01 0.  0.
         13    1    3    3    0    0  0.50219365672E+01  0.14487934140E+01 -0.16956235748E+03  0.16964289530E+03  0.00000000000E+00 0.  1.
          1    1    3    3  501    0  0.23132908872E+02  0.14088121147E+02 -0.64767473222E+03  0.64824082360E+03  0.00000000000E+00 0.  1.
         -1    1    1    2    0  502 -0.28154845439E+02 -0.15536914560E+02 -0.18102256362E+03  0.18385662778E+03  0.00000000000E+00 0. -1.
<mgrwt>
<rscale>  1 0.30000000E+03</rscale>
<asrwt>0</asrwt>
<pdfrwt beam="1">  1       21 0.63285467E-02 0.30000000E+03</pdfrwt>
<pdfrwt beam="2">0</pdfrwt>
<totfact> 0.19218627E+04</totfact>
</mgrwt>
</event>
<event>
 6    1  0.1273846E-001  0.3000000E+03  0.7818608E-02  0.1093470E+00
         21   -1    0    0  501  502  0.00000000000E+00  0.00000000000E+00  0.31210736897E+01  0.31210736897E+01  0.00000000000E+00 0. -1.
         13   -1    0    0    0    0 -0.00000000000E+00 -0.00000000000E+00 -0.10000000000E+04  0.10000000000E+04  0.00000000000E+00 0.  1.
    9000005    2    1    2  501    0  0.28399589201E+02 -0.46464264197E+02 -0.38938418086E+03  0.39319047906E+03  0.36397810679E+01 0.  0.
         13    1    3    3    0    0  0.27300818200E+02 -0.44671690060E+02 -0.36843522248E+03  0.37213627575E+03  0.00000000000E+00 0.  1.
          1    1    3    3  501    0  0.10987710015E+01 -0.17925741367E+01 -0.20948958379E+02  0.21054203308E+02  0.00000000000E+00 0.  1.
         -3    1    1    2    0  502 -0.28399589201E+02  0.46464264197E+02 -0.60749474545E+03  0.60993059463E+03  0.00000000000E+00 0. -1.
<mgrwt>
<rscale>  1 0.30000000E+03</rscale>
<asrwt>0</asrwt>
<pdfrwt beam="1">  1       21 0.11349383E-01 0.30000000E+03</pdfrwt>
<pdfrwt beam="2">0</pdfrwt>
<totfact> 0.68547833E+03</totfact>
</mgrwt>
</event>
<event>
 6    1  0.1273846E-001  0.3000000E+03  0.7818608E-02  0.1093470E+00
         21   -1    0    0  501  502  0.00000000000E+00  0.00000000000E+00  0.22068651174E+01  0.22068651174E+01  0.00000000000E+00 0. -1.
         13   -1    0    0    0    0 -0.00000000000E+00 -0.00000000000E+00 -0.10000000000E+04  0.10000000000E+04  0.00000000000E+00 0.  1.
    9000005    2    1    2  501    0  0.30115475407E+02  0.48269369763E+01 -0.87982082318E+03  0.88035569562E+03  0.33509295638E+01 0.  0.
         13    1    3    3    0    0  0.24244544213E+02  0.42923732874E+01 -0.67064940828E+03  0.67110122278E+03  0.00000000000E+00 0.  1.
          3    1    3    3  501    0  0.58709311947E+01  0.53456368889E+00 -0.20917141490E+03  0.20925447284E+03  0.00000000000E+00 0.  1.
         -3    1    1    2    0  502 -0.30115475407E+02 -0.48269369763E+01 -0.11797231171E+03  0.12185116950E+03  0.00000000000E+00 0. -1.
<mgrwt>
<rscale>  1 0.30000000E+03</rscale>
<asrwt>0</asrwt>
<pdfrwt beam="1">  1       21 0.80249810E-02 0.30000000E+03</pdfrwt>
<pdfrwt beam="2">0</pdfrwt>
<totfact> 0.12704101E+04</totfact>
</mgrwt>
</event>
<event>
 6    1  0.1273846E-001  0.3000000E+03  0.7818608E-02  0.1093470E+00
         21   -1    0    0  501  502  0.00000000000E+00  0.00000000000E+00  0.11858376782E+01  0.11858376782E+01  0.00000000000E+00 0. -1.
         13   -1    0    0    0    0 -0.00000000000E+00 -0.00000000000E+00 -0.10000000000E+04  0.10000000000E+04  0.00000000000E+00 0.  1.
    9000005    2    1    2  501    0 -0.19414046428E+02  0.27698136359E+02 -0.58750633099E+03  0.58848955217E+03  0.34888543649E+01 0.  0.
         13    1    3    3    0    0 -0.13602625158E+02  0.16474551767E+02 -0.36761003608E+03  0.36823033674E+03  0.00000000000E+00 0.  1.
          3    1    3    3  501    0 -0.58114212699E+01  0.11223584592E+02 -0.21989629490E+03  0.22025921543E+03  0.00000000000E+00 0.  1.
         -1    1    1    2    0  502  0.19414046428E+02 -0.27698136359E+02 -0.41130783133E+03  0.41269628551E+03  0.00000000000E+00 0. -1.
<mgrwt>
<rscale>  1 0.30000000E+03</rscale>
<asrwt>0</asrwt>
<pdfrwt beam="1">  1       21 0.43121461E-02 0.30000000E+03</pdfrwt>
<pdfrwt beam="2">0</pdfrwt>
<totfact> 0.37039611E+04</totfact>
</mgrwt>
</event>
<event>
 6    1  0.1273846E-001  0.3000000E+03  0.7818608E-02  0.1093470E+00
         21   -1    0    0  501  502  0.00000000000E+00  0.00000000000E+00  0.34375380414E+01  0.34375380414E+01  0.00000000000E+00 0. -1.
         13   -1    0    0    0    0 -0.00000000000E+00 -0.00000000000E+00 -0.10000000000E+04  0.10000000000E+04  0.00000000000E+00 0.  1.
    9000005    2    1    2  501    0 -0.45397752154E+02 -0.15472306805E+02 -0.78650149936E+03  0.78797070489E+03  0.35881886683E+01 0.  0.
         13    1    3    3    0    0 -0.20404663939E+02 -0.55150901720E+01 -0.32735505995E+03  0.32803673850E+03  0.00000000000E+00 0.  1.
          1    1    3    3  501    0 -0.24993088215E+02 -0.99572166331E+01 -0.45914643941E+03  0.45993396639E+03  0.00000000000E+00 0.  1.
         -3    1    1    2    0  502  0.45397752154E+02  0.15472306805E+02 -0.21006096260E+03  0.21546683315E+03  0.00000000000E+00 0. -1.
<mgrwt>
<rscale>  1 0.30000000E+03</rscale>
<asrwt>0</asrwt>
<pdfrwt beam="1">  1       21 0.12500165E-01 0.30000000E+03</pdfrwt>
<pdfrwt beam="2">0</pdfrwt>
<totfact> 0.57535561E+03</totfact>
</mgrwt>
</event>
<event>
 6    1  0.1273846E-001  0.3000000E+03  0.7818608E-02  0.1093470E+00
         21   -1    0    0  501  502  0.00000000000E+00  0.00000000000E+00  0.14118156618E+01  0.14118156618E+01  0.00000000000E+00 0. -1.
         13   -1    0    0    0    0 -0.00000000000E+00 -0.00000000000E+00 -0.10000000000E+04  0.10000000000E+04  0.00000000000E+00 0.  1.
    9000005    2    1    2  501    0 -0.33200756645E+02  0.10368926404E+01 -0.73213653941E+03  0.73289767362E+03  0.34237814687E+01 0.  0.
         13    1    3    3    0    0 -0.20103431989E+02  0.23010163011E+01 -0.44426768286E+03  0.44472825039E+03  0.00000000000E+00 0.  1.
          1    1    3    3  501    0 -0.13097324655E+02 -0.12641236607E+01 -0.28786885654E+03  0.28816942324E+03  0.00000000000E+00 0.  1.
         -1    1    1    2    0  502  0.33200756645E+02 -0.10368926404E+01 -0.26645164493E+03  0.26851414204E+03  0.00000000000E+00 0. -1.
<mgrwt>
<rscale>  1 0.30000000E+03</rscale>
<asrwt>0</asrwt>
<pdfrwt beam="1">  1       21 0.51338860E-02 0.30000000E+03</pdfrwt>
<pdfrwt beam="2">0</pdfrwt>
<totfact> 0.27535035E+04</totfact>
</mgrwt>
</event>
<event>
 6    1  0.1273846E-001  0.3000000E+03  0.7818608E-02  0.1093470E+00
         21   -1    0    0  501  502  0.00000000000E+00  0.00000000000E+00  0.42489718237E+01  0.42489718237E+01  0.00000000000E+00 0. -1.
         13   -1    0    0    0    0 -0.00000000000E+00 -0.00000000000E+00 -0.10000000000E+04  0.10000000000E+04  0.00000000000E+00 0.  1.
    9000005    2    1    2  501    0 -0.38502964666E+02  0.10537934259E+01 -0.90288664536E+03  0.90371349369E+03  0.31930440725E+01 0.  0.
         13    1    3    3    0    0 -0.16034511415E+02  0.38588125978E+00 -0.33969940924E+03  0.34007784859E+03  0.00000000000E+00 0.  1.
          1    1    3    3  501    0 -0.22468453251E+02  0.66791216613E+00 -0.56318723612E+03  0.56363564510E+03  0.00000000000E+00 0.  1.
         -1    1    1    2    0  502  0.38502964666E+02 -0.10537934259E+01 -0.92864382812E+02  0.10053547813E+03  0.00000000000E+00 0. -1.
<mgrwt>
<rscale>  1 0.30000000E+03</rscale>
<asrwt>0</asrwt>
<pdfrwt beam="1">  1       21 0.15450839E-01 0.30000000E+03</pdfrwt>
<pdfrwt beam="2">0</pdfrwt>
<totfact> 0.38980059E+03</totfact>
</mgrwt>
</event>
<event>
 6    1  0.1273846E-001  0.3000000E+03  0.7818608E-02  0.1093470E+00
         21   -1    0    0  501  502  0.00000000000E+00  0.00000000000E+00  0.43928194895E+01  0.43928194895E+01  0.00000000000E+00 0. -1.
         13   -1    0    0    0    0 -0.00000000000E+00 -0.00000000000E+00 -0.10000000000E+04  0.10000000000E+04  0.00000000000E+00 0.  1.
    9000005    2    1    2  501    0 -0.51751788160E+02  0.39847646102E+02 -0.43601446141E+03  0.44100122055E+03  0.10362600848E+02 0.  0.
         13    1    3    3    0    0 -0.10699282942E+02  0.10496129376E+02 -0.12883084373E+03  0.12969976747E+03  0.00000000000E+00 0.  1.
          1    1    3    3  501    0 -0.41052505218E+02  0.29351516726E+02 -0.30718361768E+03  0.31130145308E+03  0.00000000000E+00 0.  1.
         -3    1    1    2    0  502  0.51751788160E+02 -0.39847646102E+02 -0.55959271910E+03  0.56339159893E+03  0.00000000000E+00 0. -1.
<mgrwt>
<rscale>  1 0.30000000E+03</rscale>
<asrwt>0</asrwt>
<pdfrwt beam="1">  1       21 0.15973923E-01 0.30000000E+03</pdfrwt>
<pdfrwt beam="2">0</pdfrwt>
<totfact> 0.36637860E+03</totfact>
</mgrwt>
</event>
<event>
 6    1  0.1273846E-001  0.3000000E+03  0.7818608E-02  0.1093470E+00
         21   -1    0    0  501  502  0.00000000000E+00  0.00000000000E+00  0.43426325079E+01  0.43426325079E+01  0.00000000000E+00 0. -1.
         13   -1    0    0    0    0 -0.00000000000E+00 -0.00000000000E+00 -0.10000000000E+04  0.10000000000E+04  0.00000000000E+00 0.  1.
    9000005    2    1    2  501    0  0.65235365968E+02  0.47438711809E+01 -0.55012290331E+03  0.55403261035E+03  0.62263385748E+01 0.  0.
         13    1    3    3    0    0  0.40801891570E+02  0.18993673742E+01 -0.36660998236E+03  0.36887840967E+03  0.00000000000E+00 0.  1.
          1    1    3    3  501    0  0.24433474398E+02  0.28445038067E+01 -0.18351292095E+03  0.18515420068E+03  0.00000000000E+00 0.  1.
         -3    1    1    2    0  502 -0.65235365968E+02 -0.47438711809E+01 -0.44553446418E+03  0.45031002216E+03  0.00000000000E+00 0. -1.
<mgrwt>
<rscale>  1 0.30000000E+03</rscale>
<asrwt>0</asrwt>
<pdfrwt beam="1">  1       21 0.15791424E-01 0.30000000E+03</pdfrwt>
<pdfrwt beam="2">0</pdfrwt>
<totfact> 0.37430591E+03</totfact>
</mgrwt>
</event>
<event>
 6    1  0.1273846E-001  0.3000000E+03  0.7818608E-02  0.1093470E+00
         21   -1    0    0  501  502  0.00000000000E+00  0.00000000000E+00  0.53023874285E+01  0.53023874285E+01  0.00000000000E+00 0. -1.
         13   -1    0    0    0    0 -0.00000000000E+00 -0.00000000000E+00 -0.10000000000E+04  0.10000000000E+04  0.00000000000E+00 0.  1.
    9000005    2    1    2  501    0 -0.91421401166E+01  0.61595719188E+02 -0.75767838864E+03  0.76023969369E+03  0.31999850909E+01 0.  0.
         13    1    3    3    0    0 -0.12205999956E+01  0.35005678652E+01 -0.48815138842E+02  0.48955710800E+02  0.00000000000E+00 0.  1.
          1    1    3    3  501    0 -0.79215401210E+01  0.58095151323E+02 -0.70886324980E+03  0.71128398289E+03  0.00000000000E+00 0.  1.
         -3    1    1    2    0  502  0.91421401166E+01 -0.61595719188E+02 -0.23701922393E+03  0.24506269374E+03  0.00000000000E+00 0. -1.
<mgrwt>
<rscale>  1 0.30000000E+03</rscale>
<asrwt>0</asrwt>
<pdfrwt beam="1">  1       21 0.19281449E-01 0.30000000E+03</pdfrwt>
<pdfrwt beam="2">0</pdfrwt>
<totfact> 0.25723171E+03</totfact>
</mgrwt>
</event>
<event>
 6    1  0.1273846E-001  0.3000000E+03  0.7818608E-02  0.1093470E+00
         21   -1    0    0  501  502  0.00000000000E+00  0.00000000000E+00  0.13551461087E+02  0.13551461087E+02  0.00000000000E+00 0. -1.
         13   -1    0    0    0    0 -0.00000000000E+00 -0.00000000000E+00 -0.10000000000E+04  0.10000000000E+04  0.00000000000E+00 0.  1.
    9000005    2    1    2  501    0  0.10072605858E+02 -0.37697680755E+02 -0.97067383030E+03  0.97146329226E+03  0.32666280627E+01 0.  0.
         13    1    3    3    0    0  0.26905737066E+01 -0.10025350457E+02 -0.22395352402E+03  0.22419395121E+03  0.00000000000E+00 0.  1.
          3    1    3    3  501    0  0.73820321519E+01 -0.27672330298E+02 -0.74672030628E+03  0.74726934105E+03  0.00000000000E+00 0.  1.
         -1    1    1    2    0  502 -0.10072605858E+02  0.37697680755E+02 -0.15774708611E+02  0.42088168823E+02  0.00000000000E+00 0. -1.
<mgrwt>
<rscale>  1 0.30000000E+03</rscale>
<asrwt>0</asrwt>
<pdfrwt beam="1">  1       21 0.49278144E-01 0.30000000E+03</pdfrwt>
<pdfrwt beam="2">0</pdfrwt>
<totfact> 0.38774094E+02</totfact>
</mgrwt>
</event>
<event>
 6    1  0.1273846E-001  0.3000000E+03  0.7818608E-02  0.1093470E+00
         21   -1    0    0  501  502  0.00000000000E+00  0.00000000000E+00  0.43805713366E+01  0.43805713366E+01  0.00000000000E+00 0. -1.
         13   -1    0    0    0    0 -0.00000000000E+00 -0.00000000000E+00 -0.10000000000E+04  0.10000000000E+04  0.00000000000E+00 0.  1.
    9000005    2    1    2  501    0 -0.55120687960E+02 -0.31532165403E+02 -0.63869012411E+03  0.64184630241E+03  0.30055926675E+01 0.  0.
         13    1    3    3    0    0 -0.53046158900E+02 -0.30279224432E+02 -0.60784052805E+03  0.61090165653E+03  0.00000000000E+00 0.  1.
          3    1    3    3  501    0 -0.20745290603E+01 -0.12529409706E+01 -0.30849596058E+02  0.30944645883E+02  0.00000000000E+00 0.  1.
         -1    1    1    2    0  502  0.55120687960E+02  0.31532165403E+02 -0.35692930456E+03  0.36253426893E+03  0.00000000000E+00 0. -1.
<mgrwt>
<rscale>  1 0.30000000E+03</rscale>
<asrwt>0</asrwt>
<pdfrwt beam="1">  1       21 0.15929384E-01 0.30000000E+03</pdfrwt>
<pdfrwt beam="2">0</pdfrwt>
<totfact> 0.36828989E+03</totfact>
</mgrwt>
</event>
<event>
 6    1  0.1273846E-001  0.3000000E+03  0.7818608E-02  0.1093470E+00
         21   -1    0    0  501  502  0.00000000000E+00  0.00000000000E+00  0.59895325764E+01  0.59895325764E+01  0.00000000000E+00 0. -1.
         13   -1    0    0    0    0 -0.00000000000E+00 -0.00000000000E+00 -0.10000000000E+04  0.10000000000E+04  0.00000000000E+00 0.  1.
    9000005    2    1    2  501    0 -0.57252410671E+02 -0.27660616201E+02 -0.78363912719E+03  0.78621908641E+03  0.26873698410E+01 0.  0.
         13    1    3    3    0    0 -0.43421278851E+02 -0.22211828328E+02 -0.60355503083E+03  0.60552245872E+03  0.00000000000E+00 0.  1.
          3    1    3    3  501    0 -0.13831131820E+02 -0.54487878732E+01 -0.18008409637E+03  0.18069662770E+03  0.00000000000E+00 0.  1.
         -1    1    1    2    0  502  0.57252410671E+02  0.27660616201E+02 -0.21037134023E+03  0.21977044616E+03  0.00000000000E+00 0. -1.
<mgrwt>
<rscale>  1 0.30000000E+03</rscale>
<asrwt>0</asrwt>
<pdfrwt beam="1">  1       21 0.21780164E-01 0.30000000E+03</pdfrwt>
<pdfrwt beam="2">0</pdfrwt>
<totfact> 0.20375944E+03</totfact>
</mgrwt>
</event>
<event>
 6    1  0.1273846E-001  0.3000000E+03  0.7818608E-02  0.1093470E+00
         21   -1    0    0  501  502  0.00000000000E+00  0.00000000000E+00  0.24358705238E+01  0.24358705238E+01  0.00000000000E+00 0. -1.
         13   -1    0    0    0    0 -0.00000000000E+00 -0.00000000000E+00 -0.10000000000E+04  0.10000000000E+04  0.00000000000E+00 0.  1.
    9000005    2    1    2  501    0 -0.40365218040E+02 -0.17818770113E+02 -0.72271906715E+03  0.72407159896E+03  0.31576904418E+01 0.  0.
         13    1    3    3    0    0 -0.30437865079E+02 -0.12369602732E+02 -0.55295659711E+03  0.55393182702E+03  0.00000000000E+00 0.  1.
          1    1    3    3  501    0 -0.99273529607E+01 -0.54491673806E+01 -0.16976247004E+03  0.17013977194E+03  0.00000000000E+00 0.  1.
         -3    1    1    2    0  502  0.40365218040E+02  0.17818770113E+02 -0.27484506233E+03  0.27836427156E+03  0.00000000000E+00 0. -1.
<mgrwt>
<rscale>  1 0.30000000E+03</rscale>
<asrwt>0</asrwt>
<pdfrwt beam="1">  1       21 0.88577297E-02 0.30000000E+03</pdfrwt>
<pdfrwt beam="2">0</pdfrwt>
<totfact> 0.10675020E+04</totfact>
</mgrwt>
</event>
<event>
 6    1  0.1273846E-001  0.3000000E+03  0.7818608E-02  0.1093470E+00
         21   -1    0    0  501  502  0.00000000000E+00  0.00000000000E+00  0.10834167808E+01  0.10834167808E+01  0.00000000000E+00 0. -1.
         13   -1    0    0    0    0 -0.00000000000E+00 -0.00000000000E+00 -0.10000000000E+04  0.10000000000E+04  0.00000000000E+00 0.  1.
    9000005    2    1    2  501    0  0.27562002288E+02 -0.15347175474E+02 -0.63919994178E+03  0.63998611425E+03  0.32343621914E+01 0.  0.
         13    1    3    3    0    0  0.23973148358E+02 -0.12472801940E+02 -0.52789589085E+03  0.52858713019E+03  0.00000000000E+00 0.  1.
          1    1    3    3  501    0  0.35888539300E+01 -0.28743735346E+01 -0.11130405093E+03  0.11139898406E+03  0.00000000000E+00 0.  1.
         -3    1    1    2    0  502 -0.27562002288E+02  0.15347175474E+02 -0.35971664144E+03  0.36109730253E+03  0.00000000000E+00 0. -1.
<mgrwt>
<rscale>  1 0.30000000E+03</rscale>
<asrwt>0</asrwt>
<pdfrwt beam="1">  1       21 0.39397057E-02 0.30000000E+03</pdfrwt>
<pdfrwt beam="2">0</pdfrwt>
<totfact> 0.43136253E+04</totfact>
</mgrwt>
</event>
<event>
 6    1  0.1273846E-001  0.3000000E+03  0.7818608E-02  0.1093470E+00
         21   -1    0    0  501  502  0.00000000000E+00  0.00000000000E+00  0.21357785093E+01  0.21357785093E+01  0.00000000000E+00 0. -1.
         13   -1    0    0    0    0 -0.00000000000E+00 -0.00000000000E+00 -0.10000000000E+04  0.10000000000E+04  0.00000000000E+00 0.  1.
    9000005    2    1    2  501    0  0.46069150018E+02 -0.10707855150E+01 -0.47092775279E+03  0.47318818638E+03  0.32554913050E+01 0.  0.
         13    1    3    3    0    0  0.19400418358E+02  0.30270655464E-01 -0.21409479790E+03  0.21497199733E+03  0.00000000000E+00 0.  1.
          1    1    3    3  501    0  0.26668731660E+02 -0.11010561704E+01 -0.25683295488E+03  0.25821618905E+03  0.00000000000E+00 0.  1.
         -3    1    1    2    0  502 -0.46069150018E+02  0.10707855150E+01 -0.52693646871E+03  0.52894759213E+03  0.00000000000E+00 0. -1.
<mgrwt>
<rscale>  1 0.30000000E+03</rscale>
<asrwt>0</asrwt>
<pdfrwt beam="1">  1       21 0.77664837E-02 0.30000000E+03</pdfrwt>
<pdfrwt beam="2">0</pdfrwt>
<totfact> 0.13455568E+04</totfact>
</mgrwt>
</event>
<event>
 6    1  0.1273846E-001  0.3000000E+03  0.7818608E-02  0.1093470E+00
         21   -1    0    0  501  502  0.00000000000E+00  0.00000000000E+00  0.50413114398E+01  0.50413114398E+01  0.00000000000E+00 0. -1.
         13   -1    0    0    0    0 -0.00000000000E+00 -0.00000000000E+00 -0.10000000000E+04  0.10000000000E+04  0.00000000000E+00 0.  1.
    9000005    2    1    2  501    0  0.82225669481E+01  0.59455849215E+02 -0.76570472030E+03  0.76806031942E+03  0.32135608524E+01 0.  0.
         13    1    3    3    0    0  0.56332157461E+00  0.24326479887E+01 -0.25000324805E+02  0.25124715875E+02  0.00000000000E+00 0.  1.
          3    1    3    3  501    0  0.76592453735E+01  0.57023201226E+02 -0.74070439549E+03  0.74293560355E+03  0.00000000000E+00 0.  1.
         -1    1    1    2    0  502 -0.82225669481E+01 -0.59455849215E+02 -0.22925396826E+03  0.23698099202E+03  0.00000000000E+00 0. -1.
<mgrwt>
<rscale>  1 0.30000000E+03</rscale>
<asrwt>0</asrwt>
<pdfrwt beam="1">  1       21 0.18332080E-01 0.30000000E+03</pdfrwt>
<pdfrwt beam="2">0</pdfrwt>
<totfact> 0.28303061E+03</totfact>
</mgrwt>
</event>
<event>
 6    1  0.1273846E-001  0.3000000E+03  0.7818608E-02  0.1093470E+00
         21   -1    0    0  501  502  0.00000000000E+00  0.00000000000E+00  0.85863079801E+01  0.85863079801E+01  0.00000000000E+00 0. -1.
         13   -1    0    0    0    0 -0.00000000000E+00 -0.00000000000E+00 -0.10000000000E+04  0.10000000000E+04  0.00000000000E+00 0.  1.
    9000005    2    1    2  501    0  0.38233471309E+02  0.46974258172E+02 -0.87729871501E+03  0.87939417495E+03  0.35637504651E+01 0.  0.
         13    1    3    3    0    0  0.10891099608E+02  0.12676469246E+02 -0.22049118137E+03  0.22112365316E+03  0.00000000000E+00 0.  1.
          1    1    3    3  501    0  0.27342371701E+02  0.34297788926E+02 -0.65680753363E+03  0.65827052179E+03  0.00000000000E+00 0.  1.
         -1    1    1    2    0  502 -0.38233471309E+02 -0.46974258172E+02 -0.11411497701E+03  0.12919213303E+03  0.00000000000E+00 0. -1.
<mgrwt>
<rscale>  1 0.30000000E+03</rscale>
<asrwt>0</asrwt>
<pdfrwt beam="1">  1       21 0.31223004E-01 0.30000000E+03</pdfrwt>
<pdfrwt beam="2">0</pdfrwt>
<totfact> 0.10035092E+03</totfact>
</mgrwt>
</event>
<event>
 6    1  0.1273846E-001  0.3000000E+03  0.7818608E-02  0.1093470E+00
         21   -1    0    0  501  502  0.00000000000E+00  0.00000000000E+00  0.17531438968E+01  0.17531438968E+01  0.00000000000E+00 0. -1.
         13   -1    0    0    0    0 -0.00000000000E+00 -0.00000000000E+00 -0.10000000000E+04  0.10000000000E+04  0.00000000000E+00 0.  1.
    9000005    2    1    2  501    0  0.24489685484E+02  0.21686442331E+02 -0.81125157163E+03  0.81191826066E+03  0.34789444775E+01 0.  0.
         13    1    3    3    0    0  0.13034054410E+02  0.13718843226E+02 -0.48039117120E+03  0.48076373678E+03  0.00000000000E+00 0.  1.
          1    1    3    3  501    0  0.11455631074E+02  0.79675991053E+01 -0.33086040043E+03  0.33115452389E+03  0.00000000000E+00 0.  1.
         -1    1    1    2    0  502 -0.24489685484E+02 -0.21686442331E+02 -0.18699528447E+03  0.18983488323E+03  0.00000000000E+00 0. -1.
<mgrwt>
<rscale>  1 0.30000000E+03</rscale>
<asrwt>0</asrwt>
<pdfrwt beam="1">  1       21 0.63750822E-02 0.30000000E+03</pdfrwt>
<pdfrwt beam="2">0</pdfrwt>
<totfact> 0.18976691E+04</totfact>
</mgrwt>
</event>
<event>
 6    1  0.1273846E-001  0.3000000E+03  0.7818608E-02  0.1093470E+00
         21   -1    0    0  501  502  0.00000000000E+00  0.00000000000E+00  0.23112177430E+01  0.23112177430E+01  0.00000000000E+00 0. -1.
         13   -1    0    0    0    0 -0.00000000000E+00 -0.00000000000E+00 -0.10000000000E+04  0.10000000000E+04  0.00000000000E+00 0.  1.
    9000005    2    1    2  501    0 -0.40619053546E+02 -0.25315157536E+02 -0.45664818805E+03  0.45915775021E+03  0.27399302340E+01 0.  0.
         13    1    3    3    0    0 -0.16171079772E+02 -0.10478495813E+02 -0.19641592043E+03  0.19735885208E+03  0.00000000000E+00 0.  1.
          1    1    3    3  501    0 -0.24447973774E+02 -0.14836661722E+02 -0.26023226762E+03  0.26179889813E+03  0.00000000000E+00 0.  1.
         -1    1    1    2    0  502  0.40619053546E+02  0.25315157536E+02 -0.54104059421E+03  0.54315346753E+03  0.00000000000E+00 0. -1.
<mgrwt>
<rscale>  1 0.30000000E+03</rscale>
<asrwt>0</asrwt>
<pdfrwt beam="1">  1       21 0.84044459E-02 0.30000000E+03</pdfrwt>
<pdfrwt beam="2">0</pdfrwt>
<totfact> 0.11712348E+04</totfact>
</mgrwt>
</event>
<event>
 6    1  0.1273846E-001  0.3000000E+03  0.7818608E-02  0.1093470E+00
         21   -1    0    0  501  502  0.00000000000E+00  0.00000000000E+00  0.15568110083E+01  0.15568110083E+01  0.00000000000E+00 0. -1.
         13   -1    0    0    0    0 -0.00000000000E+00 -0.00000000000E+00 -0.10000000000E+04  0.10000000000E+04  0.00000000000E+00 0.  1.
    9000005    2    1    2  501    0 -0.23240101342E+02  0.26894164048E+02 -0.71578904520E+03  0.71667654954E+03  0.28144387915E+01 0.  0.
         13    1    3    3    0    0 -0.13641461442E+02  0.14779800419E+02 -0.37979798103E+03  0.38033017020E+03  0.00000000000E+00 0.  1.
          3    1    3    3  501    0 -0.95986398992E+01  0.12114363629E+02 -0.33599106417E+03  0.33634637934E+03  0.00000000000E+00 0.  1.
         -1    1    1    2    0  502  0.23240101342E+02 -0.26894164048E+02 -0.28265414379E+03  0.28488026147E+03  0.00000000000E+00 0. -1.
<mgrwt>
<rscale>  1 0.30000000E+03</rscale>
<asrwt>0</asrwt>
<pdfrwt beam="1">  1       21 0.56611429E-02 0.30000000E+03</pdfrwt>
<pdfrwt beam="2">0</pdfrwt>
<totfact> 0.23290527E+04</totfact>
</mgrwt>
</event>
<event>
 6    1  0.1273846E-001  0.3000000E+03  0.7818608E-02  0.1093470E+00
         21   -1    0    0  501  502  0.00000000000E+00  0.00000000000E+00  0.33462425999E+01  0.33462425999E+01  0.00000000000E+00 0. -1.
         13   -1    0    0    0    0 -0.00000000000E+00 -0.00000000000E+00 -0.10000000000E+04  0.10000000000E+04  0.00000000000E+00 0.  1.
    9000005    2    1    2  501    0 -0.32178361808E+02  0.30094905726E+02 -0.17442949436E+03  0.17994239936E+03  0.35310434622E+01 0.  0.
         13    1    3    3    0    0 -0.32137439033E+01  0.36920787616E+01 -0.15667307589E+02  0.16414143979E+02  0.00000000000E+00 0.  1.
          3    1    3    3  501    0 -0.28964617904E+02  0.26402826964E+02 -0.15876218677E+03  0.16352825539E+03  0.00000000000E+00 0.  1.
         -3    1    1    2    0  502  0.32178361808E+02 -0.30094905726E+02 -0.82222426304E+03  0.82340384324E+03  0.00000000000E+00 0. -1.
<mgrwt>
<rscale>  1 0.30000000E+03</rscale>
<asrwt>0</asrwt>
<pdfrwt beam="1">  1       21 0.12168181E-01 0.30000000E+03</pdfrwt>
<pdfrwt beam="2">0</pdfrwt>
<totfact> 0.60424177E+03</totfact>
</mgrwt>
</event>
<event>
 6    1  0.1273846E-001  0.3000000E+03  0.7818608E-02  0.1093470E+00
         21   -1    0    0  501  502  0.00000000000E+00  0.00000000000E+00  0.12960320896E+01  0.12960320896E+01  0.00000000000E+00 0. -1.
         13   -1    0    0    0    0 -0.00000000000E+00 -0.00000000000E+00 -0.10000000000E+04  0.10000000000E+04  0.00000000000E+00 0.  1.
    9000005    2    1    2  501    0 -0.11677827577E+02 -0.29952704374E+02 -0.72300565173E+03  0.72372964777E+03  0.37275300395E+01 0.  0.
         13    1    3    3    0    0 -0.10251124181E+02 -0.23382943246E+02 -0.59511892261E+03  0.59566633246E+03  0.00000000000E+00 0.  1.
          1    1    3    3  501    0 -0.14267033958E+01 -0.65697611275E+01 -0.12788672912E+03  0.12806331531E+03  0.00000000000E+00 0.  1.
         -1    1    1    2    0  502  0.11677827577E+02  0.29952704374E+02 -0.27569831618E+03  0.27756638431E+03  0.00000000000E+00 0. -1.
<mgrwt>
<rscale>  1 0.30000000E+03</rscale>
<asrwt>0</asrwt>
<pdfrwt beam="1">  1       21 0.47128539E-02 0.30000000E+03</pdfrwt>
<pdfrwt beam="2">0</pdfrwt>
<totfact> 0.31856056E+04</totfact>
</mgrwt>
</event>
<event>
 6    1  0.1273846E-001  0.3000000E+03  0.7818608E-02  0.1093470E+00
         21   -1    0    0  501  502  0.00000000000E+00  0.00000000000E+00  0.11147478128E+01  0.11147478128E+01  0.00000000000E+00 0. -1.
         13   -1    0    0    0    0 -0.00000000000E+00 -0.00000000000E+00 -0.10000000000E+04  0.10000000000E+04  0.00000000000E+00 0.  1.
    9000005    2    1    2  501    0  0.30595903611E+02  0.12507356677E+02 -0.56212362162E+03  0.56310417120E+03  0.32860844450E+01 0.  0.
         13    1    3    3    0    0  0.18823593641E+02  0.88346169561E+01 -0.33232984118E+03  0.33297973132E+03  0.00000000000E+00 0.  1.
          1    1    3    3  501    0  0.11772309970E+02  0.36727397210E+01 -0.22979378045E+03  0.23012443988E+03  0.00000000000E+00 0.  1.
         -1    1    1    2    0  502 -0.30595903611E+02 -0.12507356677E+02 -0.43676163056E+03  0.43801057661E+03  0.00000000000E+00 0. -1.
<mgrwt>
<rscale>  1 0.30000000E+03</rscale>
<asrwt>0</asrwt>
<pdfrwt beam="1">  1       21 0.40536370E-02 0.30000000E+03</pdfrwt>
<pdfrwt beam="2">0</pdfrwt>
<totfact> 0.41114322E+04</totfact>
</mgrwt>
</event>
<event>
 6    1  0.1273846E-001  0.3000000E+03  0.7818608E-02  0.1093470E+00
         21   -1    0    0  501  502  0.00000000000E+00  0.00000000000E+00  0.10276440700E+01  0.10276440700E+01  0.00000000000E+00 0. -1.
         13   -1    0    0    0    0 -0.00000000000E+00 -0.00000000000E+00 -0.10000000000E+04  0.10000000000E+04  0.00000000000E+00 0.  1.
    9000005    2    1    2  501    0 -0.29993147946E+02  0.10844695862E+02 -0.46765427432E+03  0.46875318461E+03  0.34396855219E+01 0.  0.
         13    1    3    3    0    0 -0.20325252058E+02  0.56263965225E+01 -0.30466933931E+03  0.30539839313E+03  0.00000000000E+00 0.  1.
          3    1    3    3  501    0 -0.96678958875E+01  0.52182993399E+01 -0.16298493501E+03  0.16335479148E+03  0.00000000000E+00 0.  1.
         -1    1    1    2    0  502  0.29993147946E+02 -0.10844695862E+02 -0.53131808161E+03  0.53227445946E+03  0.00000000000E+00 0. -1.
<mgrwt>
<rscale>  1 0.30000000E+03</rscale>
<asrwt>0</asrwt>
<pdfrwt beam="1">  1       21 0.37368954E-02 0.30000000E+03</pdfrwt>
<pdfrwt beam="2">0</pdfrwt>
<totfact> 0.47143582E+04</totfact>
</mgrwt>
</event>
<event>
 6    1  0.1273846E-001  0.3000000E+03  0.7818608E-02  0.1093470E+00
         21   -1    0    0  501  502  0.00000000000E+00  0.00000000000E+00  0.98944363610E+01  0.98944363610E+01  0.00000000000E+00 0. -1.
         13   -1    0    0    0    0 -0.00000000000E+00 -0.00000000000E+00 -0.10000000000E+04  0.10000000000E+04  0.00000000000E+00 0.  1.
    9000005    2    1    2  501    0 -0.51351964048E+02  0.83974111404E+02 -0.42338986767E+03  0.43469416198E+03  0.33702834638E+01 0.  0.
         13    1    3    3    0    0 -0.57518504025E+01  0.11413536755E+02 -0.53079242683E+02  0.54596324126E+02  0.00000000000E+00 0.  1.
          3    1    3    3  501    0 -0.45600113646E+02  0.72560574649E+02 -0.37031062499E+03  0.38009783785E+03  0.00000000000E+00 0.  1.
         -1    1    1    2    0  502  0.51351964048E+02 -0.83974111404E+02 -0.56671569597E+03  0.57520027438E+03  0.00000000000E+00 0. -1.
<mgrwt>
<rscale>  1 0.30000000E+03</rscale>
<asrwt>0</asrwt>
<pdfrwt beam="1">  1       21 0.35979844E-01 0.30000000E+03</pdfrwt>
<pdfrwt beam="2">0</pdfrwt>
<totfact> 0.75202264E+02</totfact>
</mgrwt>
</event>
<event>
 6    1  0.1273846E-001  0.3000000E+03  0.7818608E-02  0.1093470E+00
         21   -1    0    0  501  502  0.00000000000E+00  0.00000000000E+00  0.20126972652E+01  0.20126972652E+01  0.00000000000E+00 0. -1.
         13   -1    0    0    0    0 -0.00000000000E+00 -0.00000000000E+00 -0.10000000000E+04  0.10000000000E+04  0.00000000000E+00 0.  1.
    9000005    2    1    2  501    0  0.23639712242E+02 -0.18701659137E+02 -0.86983596661E+03  0.87036410062E+03  0.32358587719E+01 0.  0.
         13    1    3    3    0    0  0.12911115206E+02 -0.81881801199E+01 -0.43000038967E+03  0.43027209799E+03  0.00000000000E+00 0.  1.
          1    1    3    3  501    0  0.10728597035E+02 -0.10513479017E+02 -0.43983557694E+03  0.44009200263E+03  0.00000000000E+00 0.  1.
         -1    1    1    2    0  502 -0.23639712242E+02  0.18701659137E+02 -0.12815133612E+03  0.13164859665E+03  0.00000000000E+00 0. -1.
<mgrwt>
<rscale>  1 0.30000000E+03</rscale>
<asrwt>0</asrwt>
<pdfrwt beam="1">  1       21 0.73189146E-02 0.30000000E+03</pdfrwt>
<pdfrwt beam="2">0</pdfrwt>
<totfact> 0.14929289E+04</totfact>
</mgrwt>
</event>
<event>
 6    1  0.1273846E-001  0.3000000E+03  0.7818608E-02  0.1093470E+00
         21   -1    0    0  501  502  0.00000000000E+00  0.00000000000E+00  0.15273268603E+01  0.15273268603E+01  0.00000000000E+00 0. -1.
         13   -1    0    0    0    0 -0.00000000000E+00 -0.00000000000E+00 -0.10000000000E+04  0.10000000000E+04  0.00000000000E+00 0.  1.
    9000005    2    1    2  501    0  0.38680558607E+02  0.84072087072E+00 -0.56402900202E+03  0.56536428876E+03  0.33423739754E+01 0.  0.
         13    1    3    3    0    0  0.17524535297E+02  0.12036038369E+01 -0.23493360622E+03  0.23558938289E+03  0.00000000000E+00 0.  1.
          3    1    3    3  501    0  0.21156023310E+02 -0.36288296621E+00 -0.32909539579E+03  0.32977490587E+03  0.00000000000E+00 0.  1.
         -1    1    1    2    0  502 -0.38680558607E+02 -0.84072087072E+00 -0.43444367112E+03  0.43616303810E+03  0.00000000000E+00 0. -1.
<mgrwt>
<rscale>  1 0.30000000E+03</rscale>
<asrwt>0</asrwt>
<pdfrwt beam="1">  1       21 0.55539276E-02 0.30000000E+03</pdfrwt>
<pdfrwt beam="2">0</pdfrwt>
<totfact> 0.24067943E+04</totfact>
</mgrwt>
</event>
<event>
 6    1  0.1273846E-001  0.3000000E+03  0.7818608E-02  0.1093470E+00
         21   -1    0    0  501  502  0.00000000000E+00  0.00000000000E+00  0.14793737622E+01  0.14793737622E+01  0.00000000000E+00 0. -1.
         13   -1    0    0    0    0 -0.00000000000E+00 -0.00000000000E+00 -0.10000000000E+04  0.10000000000E+04  0.00000000000E+00 0.  1.
    9000005    2    1    2  501    0 -0.18424848002E+02 -0.32123136763E+02 -0.62123647980E+03  0.62238215920E+03  0.73087146911E+01 0.  0.
         13    1    3    3    0    0 -0.22693123805E+01 -0.51650302844E+01 -0.59389052962E+02  0.59656407269E+02  0.00000000000E+00 0.  1.
          3    1    3    3  501    0 -0.16155535622E+02 -0.26958106479E+02 -0.56184742684E+03  0.56272575193E+03  0.00000000000E+00 0.  1.
         -3    1    1    2    0  502  0.18424848002E+02  0.32123136763E+02 -0.37728414643E+03  0.37909721456E+03  0.00000000000E+00 0. -1.
<mgrwt>
<rscale>  1 0.30000000E+03</rscale>
<asrwt>0</asrwt>
<pdfrwt beam="1">  1       21 0.53795523E-02 0.30000000E+03</pdfrwt>
<pdfrwt beam="2">0</pdfrwt>
<totfact> 0.25420482E+04</totfact>
</mgrwt>
</event>
<event>
 6    1  0.1273846E-001  0.3000000E+03  0.7818608E-02  0.1093470E+00
         21   -1    0    0  501  502  0.00000000000E+00  0.00000000000E+00  0.17172453024E+01  0.17172453024E+01  0.00000000000E+00 0. -1.
         13   -1    0    0    0    0 -0.00000000000E+00 -0.00000000000E+00 -0.10000000000E+04  0.10000000000E+04  0.00000000000E+00 0.  1.
    9000005    2    1    2  501    0 -0.25276204725E+01  0.32205246914E+02 -0.81106480627E+03  0.81173270117E+03  0.63475501040E+01 0.  0.
         13    1    3    3    0    0 -0.33873540153E+01  0.83584904462E+01 -0.24098516464E+03  0.24115386812E+03  0.00000000000E+00 0.  1.
          1    1    3    3  501    0  0.85973354278E+00  0.23846756468E+02 -0.57007964162E+03  0.57057883306E+03  0.00000000000E+00 0.  1.
         -1    1    1    2    0  502  0.25276204725E+01 -0.32205246914E+02 -0.18721794843E+03  0.18998454413E+03  0.00000000000E+00 0. -1.
<mgrwt>
<rscale>  1 0.30000000E+03</rscale>
<asrwt>0</asrwt>
<pdfrwt beam="1">  1       21 0.62445415E-02 0.30000000E+03</pdfrwt>
<pdfrwt beam="2">0</pdfrwt>
<totfact> 0.19667634E+04</totfact>
</mgrwt>
</event>
<event>
 6    1  0.1273846E-001  0.3000000E+03  0.7818608E-02  0.1093470E+00
         21   -1    0    0  501  502  0.00000000000E+00  0.00000000000E+00  0.12235361558E+01  0.12235361558E+01  0.00000000000E+00 0. -1.
         13   -1    0    0    0    0 -0.00000000000E+00 -0.00000000000E+00 -0.10000000000E+04  0.10000000000E+04  0.00000000000E+00 0.  1.
    9000005    2    1    2  501    0  0.25041123604E+02 -0.23081908887E+02 -0.60988307558E+03  0.61084180013E+03  0.32413753531E+01 0.  0.
         13    1    3    3    0    0  0.82094489127E+01 -0.63988395906E+01 -0.16502968005E+03  0.16535759885E+03  0.00000000000E+00 0.  1.
          1    1    3    3  501    0  0.16831674691E+02 -0.16683069296E+02 -0.44485339553E+03  0.44548420128E+03  0.00000000000E+00 0.  1.
         -1    1    1    2    0  502 -0.25041123604E+02  0.23081908887E+02 -0.38889338826E+03  0.39038173602E+03  0.00000000000E+00 0. -1.
<mgrwt>
<rscale>  1 0.30000000E+03</rscale>
<asrwt>0</asrwt>
<pdfrwt beam="1">  1       21 0.44492318E-02 0.30000000E+03</pdfrwt>
<pdfrwt beam="2">0</pdfrwt>
<totfact> 0.35127735E+04</totfact>
</mgrwt>
</event>
<event>
 6    1  0.1273846E-001  0.3000000E+03  0.7818608E-02  0.1093470E+00
         21   -1    0    0  501  502  0.00000000000E+00  0.00000000000E+00  0.15798884165E+02  0.15798884165E+02  0.00000000000E+00 0. -1.
         13   -1    0    0    0    0 -0.00000000000E+00 -0.00000000000E+00 -0.10000000000E+04  0.10000000000E+04  0.00000000000E+00 0.  1.
    9000005    2    1    2  501    0  0.34744154299E+02 -0.29006168712E+02 -0.96583865335E+03  0.96695531642E+03  0.10476906249E+02 0.  0.
         13    1    3    3    0    0  0.22526860848E+02 -0.16000054512E+02 -0.48582963194E+03  0.48661472694E+03  0.00000000000E+00 0.  1.
          1    1    3    3  501    0  0.12217293451E+02 -0.13006114201E+02 -0.48000902141E+03  0.48034058948E+03  0.00000000000E+00 0.  1.
         -1    1    1    2    0  502 -0.34744154299E+02  0.29006168712E+02 -0.18362462481E+02  0.48843567741E+02  0.00000000000E+00 0. -1.
<mgrwt>
<rscale>  1 0.30000000E+03</rscale>
<asrwt>0</asrwt>
<pdfrwt beam="1">  1       21 0.57450609E-01 0.30000000E+03</pdfrwt>
<pdfrwt beam="2">0</pdfrwt>
<totfact> 0.27674640E+02</totfact>
</mgrwt>
</event>
<event>
 6    1  0.1273846E-001  0.3000000E+03  0.7818608E-02  0.1093470E+00
         21   -1    0    0  501  502  0.00000000000E+00  0.00000000000E+00  0.10486869600E+01  0.10486869600E+01  0.00000000000E+00 0. -1.
         13   -1    0    0    0    0 -0.00000000000E+00 -0.00000000000E+00 -0.10000000000E+04  0.10000000000E+04  0.00000000000E+00 0.  1.
    9000005    2    1    2  501    0 -0.61966812589E+01  0.31531701374E+02 -0.55123826917E+03  0.55218387802E+03  0.32800459531E+01 0.  0.
         13    1    3    3    0    0 -0.44443144112E+01  0.22422497454E+02 -0.41634324176E+03  0.41697028105E+03  0.00000000000E+00 0.  1.
          1    1    3    3  501    0 -0.17523668478E+01  0.91092039200E+01 -0.13489502741E+03  0.13521359697E+03  0.00000000000E+00 0.  1.
         -3    1    1    2    0  502  0.61966812589E+01 -0.31531701374E+02 -0.44771304387E+03  0.44886480894E+03  0.00000000000E+00 0. -1.
<mgrwt>
<rscale>  1 0.30000000E+03</rscale>
<asrwt>0</asrwt>
<pdfrwt beam="1">  1       21 0.38134152E-02 0.30000000E+03</pdfrwt>
<pdfrwt beam="2">0</pdfrwt>
<totfact> 0.45565470E+04</totfact>
</mgrwt>
</event>
<event>
 6    1  0.1273846E-001  0.3000000E+03  0.7818608E-02  0.1093470E+00
         21   -1    0    0  501  502  0.00000000000E+00  0.00000000000E+00  0.67552818910E+01  0.67552818910E+01  0.00000000000E+00 0. -1.
         13   -1    0    0    0    0 -0.00000000000E+00 -0.00000000000E+00 -0.10000000000E+04  0.10000000000E+04  0.00000000000E+00 0.  1.
    9000005    2    1    2  501    0  0.32873947750E+02  0.41556216800E+02 -0.88131782849E+03  0.88291972877E+03  0.43031446219E+01 0.  0.
         13    1    3    3    0    0  0.26853325749E+02  0.36240075934E+02 -0.75748128644E+03  0.75882299881E+03  0.00000000000E+00 0.  1.
          3    1    3    3  501    0  0.60206220009E+01  0.53161408657E+01 -0.12383654204E+03  0.12409672997E+03  0.00000000000E+00 0.  1.
         -3    1    1    2    0  502 -0.32873947750E+02 -0.41556216800E+02 -0.11192688962E+03  0.12383555312E+03  0.00000000000E+00 0. -1.
<mgrwt>
<rscale>  1 0.30000000E+03</rscale>
<asrwt>0</asrwt>
<pdfrwt beam="1">  1       21 0.24564713E-01 0.30000000E+03</pdfrwt>
<pdfrwt beam="2">0</pdfrwt>
<totfact> 0.16140724E+03</totfact>
</mgrwt>
</event>
<event>
 6    1  0.1273846E-001  0.3000000E+03  0.7818608E-02  0.1093470E+00
         21   -1    0    0  501  502  0.00000000000E+00  0.00000000000E+00  0.14536606860E+01  0.14536606860E+01  0.00000000000E+00 0. -1.
         13   -1    0    0    0    0 -0.00000000000E+00 -0.00000000000E+00 -0.10000000000E+04  0.10000000000E+04  0.00000000000E+00 0.  1.
    9000005    2    1    2  501    0 -0.53422594677E+01  0.30738344409E+02 -0.78617934671E+03  0.78680714872E+03  0.37601228662E+01 0.  0.
         13    1    3    3    0    0 -0.45648434146E+00  0.99983795410E+01 -0.22177268565E+03  0.22199842358E+03  0.00000000000E+00 0.  1.
          3    1    3    3  501    0 -0.48857751263E+01  0.20739964868E+02 -0.56440666106E+03  0.56480872514E+03  0.00000000000E+00 0.  1.
         -1    1    1    2    0  502  0.53422594677E+01 -0.30738344409E+02 -0.21236699260E+03  0.21464651197E+03  0.00000000000E+00 0. -1.
<mgrwt>
<rscale>  1 0.30000000E+03</rscale>
<asrwt>0</asrwt>
<pdfrwt beam="1">  1       21 0.52860500E-02 0.30000000E+03</pdfrwt>
<pdfrwt beam="2">0</pdfrwt>
<totfact> 0.26194665E+04</totfact>
</mgrwt>
</event>
<event>
 6    1  0.1273846E-001  0.3000000E+03  0.7818608E-02  0.1093470E+00
         21   -1    0    0  501  502  0.00000000000E+00  0.00000000000E+00  0.69492349256E+01  0.69492349256E+01  0.00000000000E+00 0. -1.
         13   -1    0    0    0    0 -0.00000000000E+00 -0.00000000000E+00 -0.10000000000E+04  0.10000000000E+04  0.00000000000E+00 0.  1.
    9000005    2    1    2  501    0  0.36559675872E+02 -0.22821863643E+02 -0.92745427971E+03  0.92846136165E+03  0.34076024651E+01 0.  0.
         13    1    3    3    0    0  0.36575593120E+02 -0.22812848844E+02 -0.92209154300E+03  0.92309859373E+03  0.00000000000E+00 0.  1.
          3    1    3    3  501    0 -0.15917247978E-01 -0.90147988318E-02 -0.53627367149E+01  0.53627679140E+01  0.00000000000E+00 0.  1.
         -1    1    1    2    0  502 -0.36559675872E+02  0.22821863643E+02 -0.65596485364E+02  0.78487873280E+02  0.00000000000E+00 0. -1.
<mgrwt>
<rscale>  1 0.30000000E+03</rscale>
<asrwt>0</asrwt>
<pdfrwt beam="1">  1       21 0.25269998E-01 0.30000000E+03</pdfrwt>
<pdfrwt beam="2">0</pdfrwt>
<totfact> 0.15271221E+03</totfact>
</mgrwt>
</event>
<event>
 6    1  0.1273846E-001  0.3000000E+03  0.7818608E-02  0.1093470E+00
         21   -1    0    0  501  502  0.00000000000E+00  0.00000000000E+00  0.26480293157E+01  0.26480293157E+01  0.00000000000E+00 0. -1.
         13   -1    0    0    0    0 -0.00000000000E+00 -0.00000000000E+00 -0.10000000000E+04  0.10000000000E+04  0.00000000000E+00 0.  1.
    9000005    2    1    2  501    0 -0.88543644285E+00 -0.32383261502E+02 -0.88804798021E+03  0.88864442430E+03  0.31996967297E+01 0.  0.
         13    1    3    3    0    0 -0.20760020425E+01 -0.18621024699E+02 -0.50523290692E+03  0.50558020391E+03  0.00000000000E+00 0.  1.
          3    1    3    3  501    0  0.11905655997E+01 -0.13762236803E+02 -0.38281507329E+03  0.38306422040E+03  0.00000000000E+00 0.  1.
         -3    1    1    2    0  502  0.88543644285E+00  0.32383261502E+02 -0.10930399047E+03  0.11400360501E+03  0.00000000000E+00 0. -1.
<mgrwt>
<rscale>  1 0.30000000E+03</rscale>
<asrwt>0</asrwt>
<pdfrwt beam="1">  1       21 0.96292178E-02 0.30000000E+03</pdfrwt>
<pdfrwt beam="2">0</pdfrwt>
<totfact> 0.92034094E+03</totfact>
</mgrwt>
</event>
<event>
 6    1  0.1273846E-001  0.3000000E+03  0.7818608E-02  0.1093470E+00
         21   -1    0    0  501  502  0.00000000000E+00  0.00000000000E+00  0.16831998239E+01  0.16831998239E+01  0.00000000000E+00 0. -1.
         13   -1    0    0    0    0 -0.00000000000E+00 -0.00000000000E+00 -0.10000000000E+04  0.10000000000E+04  0.00000000000E+00 0.  1.
    9000005    2    1    2  501    0 -0.24152870204E+02  0.22065695436E+02 -0.80080684760E+03  0.80148220726E+03  0.34446115161E+01 0.  0.
         13    1    3    3    0    0 -0.13859804416E+02  0.13149479344E+02 -0.42640723960E+03  0.42683502312E+03  0.00000000000E+00 0.  1.
          1    1    3    3  501    0 -0.10293065787E+02  0.89162160919E+01 -0.37439960800E+03  0.37464718414E+03  0.00000000000E+00 0.  1.
         -3    1    1    2    0  502  0.24152870204E+02 -0.22065695436E+02 -0.19750995258E+03  0.20020099256E+03  0.00000000000E+00 0. -1.
<mgrwt>
<rscale>  1 0.30000000E+03</rscale>
<asrwt>0</asrwt>
<pdfrwt beam="1">  1       21 0.61207395E-02 0.30000000E+03</pdfrwt>
<pdfrwt beam="2">0</pdfrwt>
<totfact> 0.20359638E+04</totfact>
</mgrwt>
</event>
<event>
 6    1  0.1273846E-001  0.3000000E+03  0.7818608E-02  0.1093470E+00
         21   -1    0    0  501  502  0.00000000000E+00  0.00000000000E+00  0.60729490810E+01  0.60729490810E+01  0.00000000000E+00 0. -1.
         13   -1    0    0    0    0 -0.00000000000E+00 -0.00000000000E+00 -0.10000000000E+04  0.10000000000E+04  0.00000000000E+00 0.  1.
    9000005    2    1    2  501    0  0.49106865189E+02  0.61144321875E+01 -0.88551028124E+03  0.88689633042E+03  0.27878713543E+01 0.  0.
         13    1    3    3    0    0  0.48851407791E+02  0.58782115378E+01 -0.88076517868E+03  0.88213848878E+03  0.00000000000E+00 0.  1.
          3    1    3    3  501    0  0.25545739822E+00  0.23622064965E+00 -0.47451025613E+01  0.47578416320E+01  0.00000000000E+00 0.  1.
         -3    1    1    2    0  502 -0.49106865189E+02 -0.61144321875E+01 -0.10841676967E+03  0.11917661866E+03  0.00000000000E+00 0. -1.
<mgrwt>
<rscale>  1 0.30000000E+03</rscale>
<asrwt>0</asrwt>
<pdfrwt beam="1">  1       21 0.22083498E-01 0.30000000E+03</pdfrwt>
<pdfrwt beam="2">0</pdfrwt>
<totfact> 0.19840663E+03</totfact>
</mgrwt>
</event>
<event>
 6    1  0.1273846E-001  0.3000000E+03  0.7818608E-02  0.1093470E+00
         21   -1    0    0  501  502  0.00000000000E+00  0.00000000000E+00  0.23092191806E+01  0.23092191806E+01  0.00000000000E+00 0. -1.
         13   -1    0    0    0    0 -0.00000000000E+00 -0.00000000000E+00 -0.10000000000E+04  0.10000000000E+04  0.00000000000E+00 0.  1.
    9000005    2    1    2  501    0 -0.27912652295E+02  0.25299606909E+02 -0.80961129921E+03  0.81049400167E+03  0.32991907227E+01 0.  0.
         13    1    3    3    0    0 -0.73706582760E+01  0.74911504202E+01 -0.25584795513E+03  0.25606370317E+03  0.00000000000E+00 0.  1.
          3    1    3    3  501    0 -0.20541994019E+02  0.17808456488E+02 -0.55376334408E+03  0.55443029850E+03  0.00000000000E+00 0.  1.
         -3    1    1    2    0  502  0.27912652295E+02 -0.25299606909E+02 -0.18807948161E+03  0.19181521751E+03  0.00000000000E+00 0. -1.
<mgrwt>
<rscale>  1 0.30000000E+03</rscale>
<asrwt>0</asrwt>
<pdfrwt beam="1">  1       21 0.83971784E-02 0.30000000E+03</pdfrwt>
<pdfrwt beam="2">0</pdfrwt>
<totfact> 0.11730214E+04</totfact>
</mgrwt>
</event>
<event>
 6    1  0.1273846E-001  0.3000000E+03  0.7818608E-02  0.1093470E+00
         21   -1    0    0  501  502  0.00000000000E+00  0.00000000000E+00  0.19647580549E+01  0.19647580549E+01  0.00000000000E+00 0. -1.
         13   -1    0    0    0    0 -0.00000000000E+00 -0.00000000000E+00 -0.10000000000E+04  0.10000000000E+04  0.00000000000E+00 0.  1.
    9000005    2    1    2  501    0  0.32189062743E+02  0.78677442278E+01 -0.83106821199E+03  0.83174129829E+03  0.46018643125E+01 0.  0.
         13    1    3    3    0    0  0.18486189508E+02  0.62512293042E+01 -0.52398153188E+03  0.52434479384E+03  0.00000000000E+00 0.  1.
          3    1    3    3  501    0  0.13702873234E+02  0.16165149235E+01 -0.30708668010E+03  0.30739650446E+03  0.00000000000E+00 0.  1.
         -1    1    1    2    0  502 -0.32189062743E+02 -0.78677442278E+01 -0.16696702996E+03  0.17022345976E+03  0.00000000000E+00 0. -1.
<mgrwt>
<rscale>  1 0.30000000E+03</rscale>
<asrwt>0</asrwt>
<pdfrwt beam="1">  1       21 0.71445898E-02 0.30000000E+03</pdfrwt>
<pdfrwt beam="2">0</pdfrwt>
<totfact> 0.15570791E+04</totfact>
</mgrwt>
</event>
<event>
 6    1  0.1273846E-001  0.3000000E+03  0.7818608E-02  0.1093470E+00
         21   -1    0    0  501  502  0.00000000000E+00  0.00000000000E+00  0.30767197990E+01  0.30767197990E+01  0.00000000000E+00 0. -1.
         13   -1    0    0    0    0 -0.00000000000E+00 -0.00000000000E+00 -0.10000000000E+04  0.10000000000E+04  0.00000000000E+00 0.  1.
    9000005    2    1    2  501    0 -0.53747073282E+02 -0.69938862868E+00 -0.37682908411E+03  0.38065720769E+03  0.32425457290E+01 0.  0.
         13    1    3    3    0    0 -0.16524981609E+02 -0.68964395613E+00 -0.10613002831E+03  0.10741104941E+03  0.00000000000E+00 0.  1.
          1    1    3    3  501    0 -0.37222091673E+02 -0.97446725463E-02 -0.27069905579E+03  0.27324615827E+03  0.00000000000E+00 0.  1.
         -1    1    1    2    0  502  0.53747073282E+02  0.69938862868E+00 -0.62009419609E+03  0.62241951211E+03  0.00000000000E+00 0. -1.
<mgrwt>
<rscale>  1 0.30000000E+03</rscale>
<asrwt>0</asrwt>
<pdfrwt beam="1">  1       21 0.11188096E-01 0.30000000E+03</pdfrwt>
<pdfrwt beam="2">0</pdfrwt>
<totfact> 0.70339853E+03</totfact>
</mgrwt>
</event>
<event>
 6    1  0.1273846E-001  0.3000000E+03  0.7818608E-02  0.1093470E+00
         21   -1    0    0  501  502  0.00000000000E+00  0.00000000000E+00  0.22476700652E+01  0.22476700652E+01  0.00000000000E+00 0. -1.
         13   -1    0    0    0    0 -0.00000000000E+00 -0.00000000000E+00 -0.10000000000E+04  0.10000000000E+04  0.00000000000E+00 0.  1.
    9000005    2    1    2  501    0 -0.29804935706E+02 -0.33160433403E+02 -0.33067788537E+03  0.33368483598E+03  0.31236758402E+01 0.  0.
         13    1    3    3    0    0 -0.24052668265E+02 -0.28482531099E+02 -0.27476030991E+03  0.27727786304E+03  0.00000000000E+00 0.  1.
          3    1    3    3  501    0 -0.57522674402E+01 -0.46779023039E+01 -0.55917575461E+02  0.56406972939E+02  0.00000000000E+00 0.  1.
         -1    1    1    2    0  502  0.29804935706E+02  0.33160433403E+02 -0.66707444456E+03  0.66856283409E+03  0.00000000000E+00 0. -1.
<mgrwt>
<rscale>  1 0.30000000E+03</rscale>
<asrwt>0</asrwt>
<pdfrwt beam="1">  1       21 0.81733629E-02 0.30000000E+03</pdfrwt>
<pdfrwt beam="2">0</pdfrwt>
<totfact> 0.12301502E+04</totfact>
</mgrwt>
</event>
<event>
 6    1  0.1273846E-001  0.3000000E+03  0.7818608E-02  0.1093470E+00
         21   -1    0    0  501  502  0.00000000000E+00  0.00000000000E+00  0.11322397767E+01  0.11322397767E+01  0.00000000000E+00 0. -1.
         13   -1    0    0    0    0 -0.00000000000E+00 -0.00000000000E+00 -0.10000000000E+04  0.10000000000E+04  0.00000000000E+00 0.  1.
    9000005    2    1    2  501    0  0.28292978826E+02 -0.11675273062E+02 -0.70374231044E+03  0.70442390528E+03  0.47952236668E+01 0.  0.
         13    1    3    3    0    0  0.13571075331E+02 -0.73747755607E+01 -0.31333445532E+03  0.31371490607E+03  0.00000000000E+00 0.  1.
          3    1    3    3  501    0  0.14721903495E+02 -0.43004975015E+01 -0.39040785512E+03  0.39070899921E+03  0.00000000000E+00 0.  1.
         -3    1    1    2    0  502 -0.28292978826E+02  0.11675273062E+02 -0.29512544978E+03  0.29670833450E+03  0.00000000000E+00 0. -1.
<mgrwt>
<rscale>  1 0.30000000E+03</rscale>
<asrwt>0</asrwt>
<pdfrwt beam="1">  1       21 0.41172442E-02 0.30000000E+03</pdfrwt>
<pdfrwt beam="2">0</pdfrwt>
<totfact> 0.40049156E+04</totfact>
</mgrwt>
</event>
<event>
 6    1  0.1273846E-001  0.3000000E+03  0.7818608E-02  0.1093470E+00
         21   -1    0    0  501  502  0.00000000000E+00  0.00000000000E+00  0.13202243310E+01  0.13202243310E+01  0.00000000000E+00 0. -1.
         13   -1    0    0    0    0 -0.00000000000E+00 -0.00000000000E+00 -0.10000000000E+04  0.10000000000E+04  0.00000000000E+00 0.  1.
    9000005    2    1    2  501    0  0.31249328308E+02  0.89606131029E+01 -0.27882663574E+03  0.28073341056E+03  0.31846354253E+01 0.  0.
         13    1    3    3    0    0  0.14468298622E+02  0.26735863691E+01 -0.13181739334E+03  0.13263598650E+03  0.00000000000E+00 0.  1.
          1    1    3    3  501    0  0.16781029686E+02  0.62870267338E+01 -0.14700924240E+03  0.14809742406E+03  0.00000000000E+00 0.  1.
         -3    1    1    2    0  502 -0.31249328308E+02 -0.89606131029E+01 -0.71985313993E+03  0.72058681377E+03  0.00000000000E+00 0. -1.
<mgrwt>
<rscale>  1 0.30000000E+03</rscale>
<asrwt>0</asrwt>
<pdfrwt beam="1">  1       21 0.48008259E-02 0.30000000E+03</pdfrwt>
<pdfrwt beam="2">0</pdfrwt>
<totfact> 0.30869503E+04</totfact>
</mgrwt>
</event>
<event>
 6    1  0.1273846E-001  0.3000000E+03  0.7818608E-02  0.1093470E+00
         21   -1    0    0  501  502  0.00000000000E+00  0.00000000000E+00  0.21129920160E+01  0.21129920160E+01  0.00000000000E+00 0. -1.
         13   -1    0    0    0    0 -0.00000000000E+00 -0.00000000000E+00 -0.10000000000E+04  0.10000000000E+04  0.00000000000E+00 0.  1.
    9000005    2    1    2  501    0  0.30817403777E+02  0.30644265536E+02 -0.66078743388E+03  0.66222344194E+03  0.33272966739E+01 0.  0.
         13    1    3    3    0    0  0.19424957007E+02  0.21433045676E+02 -0.44562453108E+03  0.44656234403E+03  0.00000000000E+00 0.  1.
          3    1    3    3  501    0  0.11392446770E+02  0.92112198605E+01 -0.21516290280E+03  0.21566109792E+03  0.00000000000E+00 0.  1.
         -3    1    1    2    0  502 -0.30817403777E+02 -0.30644265536E+02 -0.33709957411E+03  0.33988955007E+03  0.00000000000E+00 0. -1.
<mgrwt>
<rscale>  1 0.30000000E+03</rscale>
<asrwt>0</asrwt>
<pdfrwt beam="1">  1       21 0.76836235E-02 0.30000000E+03</pdfrwt>
<pdfrwt beam="2">0</pdfrwt>
<totfact> 0.13711002E+04</totfact>
</mgrwt>
</event>
<event>
 6    1  0.1273846E-001  0.3000000E+03  0.7818608E-02  0.1093470E+00
         21   -1    0    0  501  502  0.00000000000E+00  0.00000000000E+00  0.25218383324E+01  0.25218383324E+01  0.00000000000E+00 0. -1.
         13   -1    0    0    0    0 -0.00000000000E+00 -0.00000000000E+00 -0.10000000000E+04  0.10000000000E+04  0.00000000000E+00 0.  1.
    9000005    2    1    2  501    0  0.33791925702E+02 -0.18726309924E+02 -0.81861100546E+03  0.81952995737E+03  0.35782469618E+01 0.  0.
         13    1    3    3    0    0  0.23971350628E+02 -0.13521640911E+02 -0.61563058047E+03  0.61624546411E+03  0.00000000000E+00 0.  1.
          3    1    3    3  501    0  0.98205750742E+01 -0.52046690130E+01 -0.20298042499E+03  0.20328449327E+03  0.00000000000E+00 0.  1.
         -1    1    1    2    0  502 -0.33791925702E+02  0.18726309924E+02 -0.17886715621E+03  0.18299188096E+03  0.00000000000E+00 0. -1.
<mgrwt>
<rscale>  1 0.30000000E+03</rscale>
<asrwt>0</asrwt>
<pdfrwt beam="1">  1       21 0.91703405E-02 0.30000000E+03</pdfrwt>
<pdfrwt beam="2">0</pdfrwt>
<totfact> 0.10038717E+04</totfact>
</mgrwt>
</event>
<event>
 6    1  0.1273846E-001  0.3000000E+03  0.7818608E-02  0.1093470E+00
         21   -1    0    0  501  502  0.00000000000E+00  0.00000000000E+00  0.17300687287E+01  0.17300687287E+01  0.00000000000E+00 0. -1.
         13   -1    0    0    0    0 -0.00000000000E+00 -0.00000000000E+00 -0.10000000000E+04  0.10000000000E+04  0.00000000000E+00 0.  1.
    9000005    2    1    2  501    0  0.54742144645E+01  0.35389057912E+02 -0.75335833243E+03  0.75421432440E+03  0.28491478531E+01 0.  0.
         13    1    3    3    0    0  0.48149771374E+01  0.22958853396E+02 -0.48099904908E+03  0.48157074057E+03  0.00000000000E+00 0.  1.
          3    1    3    3  501    0  0.65923732701E+00  0.12430204516E+02 -0.27235928335E+03  0.27264358383E+03  0.00000000000E+00 0.  1.
         -3    1    1    2    0  502 -0.54742144645E+01 -0.35389057912E+02 -0.24491159884E+03  0.24751574433E+03  0.00000000000E+00 0. -1.
<mgrwt>
<rscale>  1 0.30000000E+03</rscale>
<asrwt>0</asrwt>
<pdfrwt beam="1">  1       21 0.62911723E-02 0.30000000E+03</pdfrwt>
<pdfrwt beam="2">0</pdfrwt>
<totfact> 0.19416411E+04</totfact>
</mgrwt>
</event>
<event>
 6    1  0.1273846E-001  0.3000000E+03  0.7818608E-02  0.1093470E+00
         21   -1    0    0  501  502  0.00000000000E+00  0.00000000000E+00  0.10493735245E+01  0.10493735245E+01  0.00000000000E+00 0. -1.
         13   -1    0    0    0    0 -0.00000000000E+00 -0.00000000000E+00 -0.10000000000E+04  0.10000000000E+04  0.00000000000E+00 0.  1.
    9000005    2    1    2  501    0 -0.23236173828E+02 -0.19482240625E+02 -0.32958141883E+03  0.33099369403E+03  0.36655665580E+01 0.  0.
         13    1    3    3    0    0 -0.22936483258E+02 -0.18536524336E+02 -0.31447290556E+03  0.31585264496E+03  0.00000000000E+00 0.  1.
          3    1    3    3  501    0 -0.29969056966E+00 -0.94571628854E+00 -0.15108513265E+02  0.15141049065E+02  0.00000000000E+00 0.  1.
         -1    1    1    2    0  502  0.23236173828E+02  0.19482240625E+02 -0.66936920765E+03  0.67005567949E+03  0.00000000000E+00 0. -1.
<mgrwt>
<rscale>  1 0.30000000E+03</rscale>
<asrwt>0</asrwt>
<pdfrwt beam="1">  1       21 0.38159118E-02 0.30000000E+03</pdfrwt>
<pdfrwt beam="2">0</pdfrwt>
<totfact> 0.45515385E+04</totfact>
</mgrwt>
</event>
<event>
 6    1  0.1273846E-001  0.3000000E+03  0.7818608E-02  0.1093470E+00
         21   -1    0    0  501  502  0.00000000000E+00  0.00000000000E+00  0.14032390814E+01  0.14032390814E+01  0.00000000000E+00 0. -1.
         13   -1    0    0    0    0 -0.00000000000E+00 -0.00000000000E+00 -0.10000000000E+04  0.10000000000E+04  0.00000000000E+00 0.  1.
    9000005    2    1    2  501    0 -0.72842864967E+00  0.36900842197E+02 -0.58097647717E+03  0.58215521683E+03  0.29709753861E+01 0.  0.
         13    1    3    3    0    0 -0.18926810443E+01  0.22849996632E+02 -0.36060755037E+03  0.36133573028E+03  0.00000000000E+00 0.  1.
          1    1    3    3  501    0  0.11642523947E+01  0.14050845564E+02 -0.22036892680E+03  0.22081948656E+03  0.00000000000E+00 0.  1.
         -1    1    1    2    0  502  0.72842864967E+00 -0.36900842197E+02 -0.41762028375E+03  0.41924802225E+03  0.00000000000E+00 0. -1.
<mgrwt>
<rscale>  1 0.30000000E+03</rscale>
<asrwt>0</asrwt>
<pdfrwt beam="1">  1       21 0.51026983E-02 0.30000000E+03</pdfrwt>
<pdfrwt beam="2">0</pdfrwt>
<totfact> 0.27822898E+04</totfact>
</mgrwt>
</event>
<event>
 6    1  0.1273846E-001  0.3000000E+03  0.7818608E-02  0.1093470E+00
         21   -1    0    0  501  502  0.00000000000E+00  0.00000000000E+00  0.23060517228E+01  0.23060517228E+01  0.00000000000E+00 0. -1.
         13   -1    0    0    0    0 -0.00000000000E+00 -0.00000000000E+00 -0.10000000000E+04  0.10000000000E+04  0.00000000000E+00 0.  1.
    9000005    2    1    2  501    0 -0.33724821098E+02 -0.11133357861E+02 -0.83603043536E+03  0.83678745269E+03  0.22443093497E+01 0.  0.
         13    1    3    3    0    0 -0.44751634030E+01 -0.69206708581E+00 -0.10584732154E+03  0.10594414341E+03  0.00000000000E+00 0.  1.
          3    1    3    3  501    0 -0.29249657695E+02 -0.10441290775E+02 -0.73018311382E+03  0.73084330929E+03  0.00000000000E+00 0.  1.
         -1    1    1    2    0  502  0.33724821098E+02  0.11133357861E+02 -0.16166351292E+03  0.16551859903E+03  0.00000000000E+00 0. -1.
<mgrwt>
<rscale>  1 0.30000000E+03</rscale>
<asrwt>0</asrwt>
<pdfrwt beam="1">  1       21 0.83856603E-02 0.30000000E+03</pdfrwt>
<pdfrwt beam="2">0</pdfrwt>
<totfact> 0.11758614E+04</totfact>
</mgrwt>
</event>
<event>
 6    1  0.1273846E-001  0.3000000E+03  0.7818608E-02  0.1093470E+00
         21   -1    0    0  501  502  0.00000000000E+00  0.00000000000E+00  0.16513278925E+01  0.16513278925E+01  0.00000000000E+00 0. -1.
         13   -1    0    0    0    0 -0.00000000000E+00 -0.00000000000E+00 -0.10000000000E+04  0.10000000000E+04  0.00000000000E+00 0.  1.
    9000005    2    1    2  501    0 -0.75192228220E+00 -0.32486653032E+02 -0.20056147027E+03  0.20320260228E+03  0.32320589736E+01 0.  0.
         13    1    3    3    0    0 -0.10317477221E+01 -0.31467268674E+02 -0.19030491927E+03  0.19289172040E+03  0.00000000000E+00 0.  1.
          3    1    3    3  501    0  0.27982543994E+00 -0.10193843579E+01 -0.10256550998E+02  0.10310881879E+02  0.00000000000E+00 0.  1.
         -1    1    1    2    0  502  0.75192228220E+00  0.32486653032E+02 -0.79778720184E+03  0.79844872561E+03  0.00000000000E+00 0. -1.
<mgrwt>
<rscale>  1 0.30000000E+03</rscale>
<asrwt>0</asrwt>
<pdfrwt beam="1">  1       21 0.60048414E-02 0.30000000E+03</pdfrwt>
<pdfrwt beam="2">0</pdfrwt>
<totfact> 0.21042374E+04</totfact>
</mgrwt>
</event>
<event>
 6    1  0.1273846E-001  0.3000000E+03  0.7818608E-02  0.1093470E+00
         21   -1    0    0  501  502  0.00000000000E+00  0.00000000000E+00  0.51740219704E+01  0.51740219704E+01  0.00000000000E+00 0. -1.
         13   -1    0    0    0    0 -0.00000000000E+00 -0.00000000000E+00 -0.10000000000E+04  0.10000000000E+04  0.00000000000E+00 0.  1.
    9000005    2    1    2  501    0  0.26288132913E+02 -0.19386132659E+02 -0.94516576611E+03  0.94573476962E+03  0.30068223127E+01 0.  0.
         13    1    3    3    0    0  0.22446007250E+01 -0.27718445318E+01 -0.96025712141E+02  0.96091928624E+02  0.00000000000E+00 0.  1.
          3    1    3    3  501    0  0.24043532188E+02 -0.16614288127E+02 -0.84914005397E+03  0.84964284100E+03  0.00000000000E+00 0.  1.
         -1    1    1    2    0  502 -0.26288132913E+02  0.19386132659E+02 -0.49660211924E+02  0.59439252349E+02  0.00000000000E+00 0. -1.
<mgrwt>
<rscale>  1 0.30000000E+03</rscale>
<asrwt>0</asrwt>
<pdfrwt beam="1">  1       21 0.18814665E-01 0.30000000E+03</pdfrwt>
<pdfrwt beam="2">0</pdfrwt>
<totfact> 0.26946612E+03</totfact>
</mgrwt>
</event>
<event>
 6    1  0.1273846E-001  0.3000000E+03  0.7818608E-02  0.1093470E+00
         21   -1    0    0  501  502  0.00000000000E+00  0.00000000000E+00  0.11008040518E+01  0.11008040518E+01  0.00000000000E+00 0. -1.
         13   -1    0    0    0    0 -0.00000000000E+00 -0.00000000000E+00 -0.10000000000E+04  0.10000000000E+04  0.00000000000E+00 0.  1.
    9000005    2    1    2  501    0  0.28204331333E+02 -0.15395524767E+02 -0.38192743733E+03  0.38329285863E+03  0.35130621521E+01 0.  0.
         13    1    3    3    0    0  0.19338884896E+02 -0.12022715383E+02 -0.25802164275E+03  0.25902452834E+03  0.00000000000E+00 0.  1.
          1    1    3    3  501    0  0.88654464374E+01 -0.33728093845E+01 -0.12390579458E+03  0.12426833030E+03  0.00000000000E+00 0.  1.
         -1    1    1    2    0  502 -0.28204331333E+02  0.15395524767E+02 -0.61697175862E+03  0.61780794542E+03  0.00000000000E+00 0. -1.
<mgrwt>
<rscale>  1 0.30000000E+03</rscale>
<asrwt>0</asrwt>
<pdfrwt beam="1">  1       21 0.40029323E-02 0.30000000E+03</pdfrwt>
<pdfrwt beam="2">0</pdfrwt>
<totfact> 0.41995466E+04</totfact>
</mgrwt>
</event>
<event>
 6    1  0.1273846E-001  0.3000000E+03  0.7818608E-02  0.1093470E+00
         21   -1    0    0  501  502  0.00000000000E+00  0.00000000000E+00  0.12155524485E+01  0.12155524485E+01  0.00000000000E+00 0. -1.
         13   -1    0    0    0    0 -0.00000000000E+00 -0.00000000000E+00 -0.10000000000E+04  0.10000000000E+04  0.00000000000E+00 0.  1.
    9000005    2    1    2  501    0 -0.18318156886E+02  0.27659359123E+02 -0.65074807268E+03  0.65160160357E+03  0.33167236006E+01 0.  0.
         13    1    3    3    0    0 -0.12249276063E+02  0.18467387627E+02 -0.46415214774E+03  0.46468086406E+03  0.00000000000E+00 0.  1.
          1    1    3    3  501    0 -0.60688808227E+01  0.91919714958E+01 -0.18659592494E+03  0.18692073951E+03  0.00000000000E+00 0.  1.
         -1    1    1    2    0  502  0.18318156886E+02 -0.27659359123E+02 -0.34803637487E+03  0.34961394888E+03  0.00000000000E+00 0. -1.
<mgrwt>
<rscale>  1 0.30000000E+03</rscale>
<asrwt>0</asrwt>
<pdfrwt beam="1">  1       21 0.44202000E-02 0.30000000E+03</pdfrwt>
<pdfrwt beam="2">0</pdfrwt>
<totfact> 0.35519686E+04</totfact>
</mgrwt>
</event>
<event>
 6    1  0.1273846E-001  0.3000000E+03  0.7818608E-02  0.1093470E+00
         21   -1    0    0  501  502  0.00000000000E+00  0.00000000000E+00  0.16199721362E+02  0.16199721362E+02  0.00000000000E+00 0. -1.
         13   -1    0    0    0    0 -0.00000000000E+00 -0.00000000000E+00 -0.10000000000E+04  0.10000000000E+04  0.00000000000E+00 0.  1.
    9000005    2    1    2  501    0 -0.23023652585E+02 -0.24225057861E+02 -0.98214866161E+03  0.98273825329E+03  0.64450732108E+01 0.  0.
         13    1    3    3    0    0 -0.21642006286E+02 -0.24116661961E+02 -0.95967575643E+03  0.96022265507E+03  0.00000000000E+00 0.  1.
          1    1    3    3  501    0 -0.13816462998E+01 -0.10839589946E+00 -0.22472905176E+02  0.22515598220E+02  0.00000000000E+00 0.  1.
         -1    1    1    2    0  502  0.23023652585E+02  0.24225057861E+02 -0.16516170271E+01  0.33461468072E+02  0.00000000000E+00 0. -1.
<mgrwt>
<rscale>  1 0.30000000E+03</rscale>
<asrwt>0</asrwt>
<pdfrwt beam="1">  1       21 0.58908202E-01 0.30000000E+03</pdfrwt>
<pdfrwt beam="2">0</pdfrwt>
<totfact> 0.26167608E+02</totfact>
</mgrwt>
</event>
<event>
 6    1  0.1273846E-001  0.3000000E+03  0.7818608E-02  0.1093470E+00
         21   -1    0    0  501  502  0.00000000000E+00  0.00000000000E+00  0.20137508073E+01  0.20137508073E+01  0.00000000000E+00 0. -1.
         13   -1    0    0    0    0 -0.00000000000E+00 -0.00000000000E+00 -0.10000000000E+04  0.10000000000E+04  0.00000000000E+00 0.  1.
    9000005    2    1    2  501    0 -0.42659636381E+02  0.26043300412E+01 -0.35582340510E+03  0.35843023218E+03  0.59421052626E+01 0.  0.
         13    1    3    3    0    0 -0.12535013406E+02 -0.57756270459E+00 -0.85741720460E+02  0.86655079293E+02  0.00000000000E+00 0.  1.
          3    1    3    3  501    0 -0.30124622975E+02  0.31818927458E+01 -0.27008168464E+03  0.27177515289E+03  0.00000000000E+00 0.  1.
         -3    1    1    2    0  502  0.42659636381E+02 -0.26043300412E+01 -0.64216284410E+03  0.64358351863E+03  0.00000000000E+00 0. -1.
<mgrwt>
<rscale>  1 0.30000000E+03</rscale>
<asrwt>0</asrwt>
<pdfrwt beam="1">  1       21 0.73227457E-02 0.30000000E+03</pdfrwt>
<pdfrwt beam="2">0</pdfrwt>
<totfact> 0.14915645E+04</totfact>
</mgrwt>
</event>
<event>
 6    1  0.1273846E-001  0.3000000E+03  0.7818608E-02  0.1093470E+00
         21   -1    0    0  501  502  0.00000000000E+00  0.00000000000E+00  0.37041325606E+01  0.37041325606E+01  0.00000000000E+00 0. -1.
         13   -1    0    0    0    0 -0.00000000000E+00 -0.00000000000E+00 -0.10000000000E+04  0.10000000000E+04  0.00000000000E+00 0.  1.
    9000005    2    1    2  501    0 -0.21046119990E+01 -0.34345087557E+02 -0.91201172915E+03  0.91266661064E+03  0.33066043590E+01 0.  0.
         13    1    3    3    0    0 -0.13591345000E+01 -0.32794014361E+02 -0.87354764447E+03  0.87416404741E+03  0.00000000000E+00 0.  1.
          3    1    3    3  501    0 -0.74547749899E+00 -0.15510731961E+01 -0.38464084681E+02  0.38502563228E+02  0.00000000000E+00 0.  1.
         -1    1    1    2    0  502  0.21046119990E+01  0.34345087557E+02 -0.84284138290E+02  0.91037521925E+02  0.00000000000E+00 0. -1.
<mgrwt>
<rscale>  1 0.30000000E+03</rscale>
<asrwt>0</asrwt>
<pdfrwt beam="1">  1       21 0.13469601E-01 0.30000000E+03</pdfrwt>
<pdfrwt beam="2">0</pdfrwt>
<totfact> 0.50199824E+03</totfact>
</mgrwt>
</event>
<event>
 6    1  0.1273846E-001  0.3000000E+03  0.7818608E-02  0.1093470E+00
         21   -1    0    0  501  502  0.00000000000E+00  0.00000000000E+00  0.70539642995E+01  0.70539642995E+01  0.00000000000E+00 0. -1.
         13   -1    0    0    0    0 -0.00000000000E+00 -0.00000000000E+00 -0.10000000000E+04  0.10000000000E+04  0.00000000000E+00 0.  1.
    9000005    2    1    2  501    0  0.67105190386E+02  0.38623749071E+02 -0.69124394189E+03  0.69557514643E+03  0.34200246828E+01 0.  0.
         13    1    3    3    0    0  0.13682730924E+02  0.80687430931E+01 -0.12989301376E+03  0.13086067692E+03  0.00000000000E+00 0.  1.
          1    1    3    3  501    0  0.53422459462E+02  0.30555005977E+02 -0.56135092813E+03  0.56471446951E+03  0.00000000000E+00 0.  1.
         -3    1    1    2    0  502 -0.67105190386E+02 -0.38623749071E+02 -0.30170209381E+03  0.31147881787E+03  0.00000000000E+00 0. -1.
<mgrwt>
<rscale>  1 0.30000000E+03</rscale>
<asrwt>0</asrwt>
<pdfrwt beam="1">  1       21 0.25650833E-01 0.30000000E+03</pdfrwt>
<pdfrwt beam="2">0</pdfrwt>
<totfact> 0.14829314E+03</totfact>
</mgrwt>
</event>
<event>
 6    1  0.1273846E-001  0.3000000E+03  0.7818608E-02  0.1093470E+00
         21   -1    0    0  501  502  0.00000000000E+00  0.00000000000E+00  0.92567225124E+00  0.92567225124E+00  0.00000000000E+00 0. -1.
         13   -1    0    0    0    0 -0.00000000000E+00 -0.00000000000E+00 -0.10000000000E+04  0.10000000000E+04  0.00000000000E+00 0.  1.
    9000005    2    1    2  501    0 -0.12656372929E+02 -0.27549255187E+02 -0.47050881740E+03  0.47149140441E+03  0.25400672935E+01 0.  0.
         13    1    3    3    0    0 -0.79336862714E+01 -0.15291788227E+02 -0.28155019076E+03  0.28207674856E+03  0.00000000000E+00 0.  1.
          1    1    3    3  501    0 -0.47226866577E+01 -0.12257466960E+02 -0.18895862665E+03  0.18941465585E+03  0.00000000000E+00 0.  1.
         -3    1    1    2    0  502  0.12656372929E+02  0.27549255187E+02 -0.52856551035E+03  0.52943426784E+03  0.00000000000E+00 0. -1.
<mgrwt>
<rscale>  1 0.30000000E+03</rscale>
<asrwt>0</asrwt>
<pdfrwt beam="1">  1       21 0.33660880E-02 0.30000000E+03</pdfrwt>
<pdfrwt beam="2">0</pdfrwt>
<totfact> 0.56163712E+04</totfact>
</mgrwt>
</event>
<event>
 6    1  0.1273846E-001  0.3000000E+03  0.7818608E-02  0.1093470E+00
         21   -1    0    0  501  502  0.00000000000E+00  0.00000000000E+00  0.27052985424E+01  0.27052985424E+01  0.00000000000E+00 0. -1.
         13   -1    0    0    0    0 -0.00000000000E+00 -0.00000000000E+00 -0.10000000000E+04  0.10000000000E+04  0.00000000000E+00 0.  1.
    9000005    2    1    2  501    0 -0.50425623472E+02 -0.10293876896E+01 -0.61861504132E+03  0.62068162370E+03  0.41599885276E+01 0.  0.
         13    1    3    3    0    0 -0.11635316237E+02  0.90598156834E-01 -0.16492581428E+03  0.16533575840E+03  0.00000000000E+00 0.  1.
          1    1    3    3  501    0 -0.38790307235E+02 -0.11199858464E+01 -0.45368922705E+03  0.45534586530E+03  0.00000000000E+00 0.  1.
         -3    1    1    2    0  502  0.50425623472E+02  0.10293876896E+01 -0.37867966013E+03  0.38202367484E+03  0.00000000000E+00 0. -1.
<mgrwt>
<rscale>  1 0.30000000E+03</rscale>
<asrwt>0</asrwt>
<pdfrwt beam="1">  1       21 0.98374700E-02 0.30000000E+03</pdfrwt>
<pdfrwt beam="2">0</pdfrwt>
<totfact> 0.88587000E+03</totfact>
</mgrwt>
</event>
<event>
 6    1  0.1273846E-001  0.3000000E+03  0.7818608E-02  0.1093470E+00
         21   -1    0    0  501  502  0.00000000000E+00  0.00000000000E+00  0.19940209294E+01  0.19940209294E+01  0.00000000000E+00 0. -1.
         13   -1    0    0    0    0 -0.00000000000E+00 -0.00000000000E+00 -0.10000000000E+04  0.10000000000E+04  0.00000000000E+00 0.  1.
    9000005    2    1    2  501    0  0.37535262602E+02 -0.10782847306E+02 -0.74092175995E+03  0.74196044337E+03  0.38832244323E+01 0.  0.
         13    1    3    3    0    0  0.12576557038E+02 -0.17250238231E+01 -0.23864553302E+03  0.23898291973E+03  0.00000000000E+00 0.  1.
          1    1    3    3  501    0  0.24958705564E+02 -0.90578234826E+01 -0.50227622693E+03  0.50297752364E+03  0.00000000000E+00 0.  1.
         -3    1    1    2    0  502 -0.37535262602E+02  0.10782847306E+02 -0.25708421912E+03  0.26003357755E+03  0.00000000000E+00 0. -1.
<mgrwt>
<rscale>  1 0.30000000E+03</rscale>
<asrwt>0</asrwt>
<pdfrwt beam="1">  1       21 0.72510005E-02 0.30000000E+03</pdfrwt>
<pdfrwt beam="2">0</pdfrwt>
<totfact> 0.15174346E+04</totfact>
</mgrwt>
</event>
<event>
 6    1  0.1273846E-001  0.3000000E+03  0.7818608E-02  0.1093470E+00
         21   -1    0    0  501  502  0.00000000000E+00  0.00000000000E+00  0.16298512465E+01  0.16298512465E+01  0.00000000000E+00 0. -1.
         13   -1    0    0    0    0 -0.00000000000E+00 -0.00000000000E+00 -0.10000000000E+04  0.10000000000E+04  0.00000000000E+00 0.  1.
    9000005    2    1    2  501    0 -0.32250005927E+02  0.92225576642E+01 -0.22399940590E+03  0.22653297612E+03  0.40419019715E+01 0.  0.
         13    1    3    3    0    0 -0.57216709874E+01  0.20983979653E+01 -0.51669810806E+02  0.52027974606E+02  0.00000000000E+00 0.  1.
          3    1    3    3  501    0 -0.26528334939E+02  0.71241596989E+01 -0.17232959510E+03  0.17450500151E+03  0.00000000000E+00 0.  1.
         -1    1    1    2    0  502  0.32250005927E+02 -0.92225576642E+01 -0.77437074285E+03  0.77509687513E+03  0.00000000000E+00 0. -1.
<mgrwt>
<rscale>  1 0.30000000E+03</rscale>
<asrwt>0</asrwt>
<pdfrwt beam="1">  1       21 0.59267443E-02 0.30000000E+03</pdfrwt>
<pdfrwt beam="2">0</pdfrwt>
<totfact> 0.21522749E+04</totfact>
</mgrwt>
</event>
<event>
 6    1  0.1273846E-001  0.3000000E+03  0.7818608E-02  0.1093470E+00
         21   -1    0    0  501  502  0.00000000000E+00  0.00000000000E+00  0.17274488137E+01  0.17274488137E+01  0.00000000000E+00 0. -1.
         13   -1    0    0    0    0 -0.00000000000E+00 -0.00000000000E+00 -0.10000000000E+04  0.10000000000E+04  0.00000000000E+00 0.  1.
    9000005    2    1    2  501    0  0.33794177160E+02  0.25894972370E+01 -0.78845251025E+03  0.78918756671E+03  0.33019123724E+01 0.  0.
         13    1    3    3    0    0  0.58212360846E+01  0.15344733399E+01 -0.12541072980E+03  0.12555513748E+03  0.00000000000E+00 0.  1.
          3    1    3    3  501    0  0.27972941076E+02  0.10550238971E+01 -0.66304178044E+03  0.66363242923E+03  0.00000000000E+00 0.  1.
         -1    1    1    2    0  502 -0.33794177160E+02 -0.25894972370E+01 -0.20982004094E+03  0.21253988211E+03  0.00000000000E+00 0. -1.
<mgrwt>
<rscale>  1 0.30000000E+03</rscale>
<asrwt>0</asrwt>
<pdfrwt beam="1">  1       21 0.62816453E-02 0.30000000E+03</pdfrwt>
<pdfrwt beam="2">0</pdfrwt>
<totfact> 0.19467332E+04</totfact>
</mgrwt>
</event>
<event>
 6    1  0.1273846E-001  0.3000000E+03  0.7818608E-02  0.1093470E+00
         21   -1    0    0  501  502  0.00000000000E+00  0.00000000000E+00  0.12550173828E+01  0.12550173828E+01  0.00000000000E+00 0. -1.
         13   -1    0    0    0    0 -0.00000000000E+00 -0.00000000000E+00 -0.10000000000E+04  0.10000000000E+04  0.00000000000E+00 0.  1.
    9000005    2    1    2  501    0  0.28556136473E+02 -0.20914339344E+02 -0.50176712453E+03  0.50301827250E+03  0.20670489457E+01 0.  0.
         13    1    3    3    0    0  0.18463509287E+02 -0.12978433383E+02 -0.33228426719E+03  0.33304980878E+03  0.00000000000E+00 0.  1.
          1    1    3    3  501    0  0.10092627186E+02 -0.79359059609E+01 -0.16948285734E+03  0.16996846372E+03  0.00000000000E+00 0.  1.
         -3    1    1    2    0  502 -0.28556136473E+02  0.20914339344E+02 -0.49697785809E+03  0.49823674488E+03  0.00000000000E+00 0. -1.
<mgrwt>
<rscale>  1 0.30000000E+03</rscale>
<asrwt>0</asrwt>
<pdfrwt beam="1">  1       21 0.45637092E-02 0.30000000E+03</pdfrwt>
<pdfrwt beam="2">0</pdfrwt>
<totfact> 0.33645455E+04</totfact>
</mgrwt>
</event>
<event>
 6    1  0.1273846E-001  0.3000000E+03  0.7818608E-02  0.1093470E+00
         21   -1    0    0  501  502  0.00000000000E+00  0.00000000000E+00  0.27202858699E+01  0.27202858699E+01  0.00000000000E+00 0. -1.
         13   -1    0    0    0    0 -0.00000000000E+00 -0.00000000000E+00 -0.10000000000E+04  0.10000000000E+04  0.00000000000E+00 0.  1.
    9000005    2    1    2  501    0  0.10701690832E+02 -0.31343466783E+02 -0.88579596997E+03  0.88642082625E+03  0.32313608138E+01 0.  0.
         13    1    3    3    0    0  0.60008954686E+01 -0.20908187482E+02 -0.55057818587E+03  0.55100771484E+03  0.00000000000E+00 0.  1.
          3    1    3    3  501    0  0.47007953631E+01 -0.10435279301E+02 -0.33521778410E+03  0.33541311141E+03  0.00000000000E+00 0.  1.
         -3    1    1    2    0  502 -0.10701690832E+02  0.31343466783E+02 -0.11148374416E+03  0.11629945962E+03  0.00000000000E+00 0. -1.
<mgrwt>
<rscale>  1 0.30000000E+03</rscale>
<asrwt>0</asrwt>
<pdfrwt beam="1">  1       21 0.98919695E-02 0.30000000E+03</pdfrwt>
<pdfrwt beam="2">0</pdfrwt>
<totfact> 0.87717478E+03</totfact>
</mgrwt>
</event>
<event>
 6    1  0.1273846E-001  0.3000000E+03  0.7818608E-02  0.1093470E+00
         21   -1    0    0  501  502  0.00000000000E+00  0.00000000000E+00  0.13117376757E+02  0.13117376757E+02  0.00000000000E+00 0. -1.
         13   -1    0    0    0    0 -0.00000000000E+00 -0.00000000000E+00 -0.10000000000E+04  0.10000000000E+04  0.00000000000E+00 0.  1.
    9000005    2    1    2  501    0 -0.97434862021E+02  0.34584182904E+02 -0.27861070441E+03  0.29733896897E+03  0.98447860978E+01 0.  0.
         13    1    3    3    0    0 -0.39356505858E+02  0.13316488669E+02 -0.12590323662E+03  0.13258162925E+03  0.00000000000E+00 0.  1.
          1    1    3    3  501    0 -0.58078356163E+02  0.21267694236E+02 -0.15270746779E+03  0.16475733972E+03  0.00000000000E+00 0.  1.
         -3    1    1    2    0  502  0.97434862021E+02 -0.34584182904E+02 -0.70827191883E+03  0.71577840779E+03  0.00000000000E+00 0. -1.
<mgrwt>
<rscale>  1 0.30000000E+03</rscale>
<asrwt>0</asrwt>
<pdfrwt beam="1">  1       21 0.47699652E-01 0.30000000E+03</pdfrwt>
<pdfrwt beam="2">0</pdfrwt>
<totfact> 0.41591880E+02</totfact>
</mgrwt>
</event>
<event>
 6    1  0.1273846E-001  0.3000000E+03  0.7818608E-02  0.1093470E+00
         21   -1    0    0  501  502  0.00000000000E+00  0.00000000000E+00  0.33898928282E+01  0.33898928282E+01  0.00000000000E+00 0. -1.
         13   -1    0    0    0    0 -0.00000000000E+00 -0.00000000000E+00 -0.10000000000E+04  0.10000000000E+04  0.00000000000E+00 0.  1.
    9000005    2    1    2  501    0 -0.28346250153E+02  0.41509119416E+02 -0.75108030112E+03  0.75276786157E+03  0.33641921523E+01 0.  0.
         13    1    3    3    0    0 -0.57011859037E+01  0.68064662189E+01 -0.14720612223E+03  0.14747363806E+03  0.00000000000E+00 0.  1.
          3    1    3    3  501    0 -0.22645064250E+02  0.34702653197E+02 -0.60387417889E+03  0.60529422351E+03  0.00000000000E+00 0.  1.
         -3    1    1    2    0  502  0.28346250153E+02 -0.41509119416E+02 -0.24552980605E+03  0.25062203126E+03  0.00000000000E+00 0. -1.
<mgrwt>
<rscale>  1 0.30000000E+03</rscale>
<asrwt>0</asrwt>
<pdfrwt beam="1">  1       21 0.12326909E-01 0.30000000E+03</pdfrwt>
<pdfrwt beam="2">0</pdfrwt>
<totfact> 0.59016308E+03</totfact>
</mgrwt>
</event>
<event>
 6    1  0.1273846E-001  0.3000000E+03  0.7818608E-02  0.1093470E+00
         21   -1    0    0  501  502  0.00000000000E+00  0.00000000000E+00  0.74996749581E+01  0.74996749581E+01  0.00000000000E+00 0. -1.
         13   -1    0    0    0    0 -0.00000000000E+00 -0.00000000000E+00 -0.10000000000E+04  0.10000000000E+04  0.00000000000E+00 0.  1.
    9000005    2    1    2  501    0  0.69861761754E+02 -0.38357086738E+02 -0.69302414273E+03  0.69759982722E+03  0.33353660904E+01 0.  0.
         13    1    3    3    0    0  0.61760405788E+02 -0.35064873196E+02 -0.61910717932E+03  0.62316738726E+03  0.00000000000E+00 0.  1.
          3    1    3    3  501    0  0.81013559657E+01 -0.32922135419E+01 -0.73916963408E+02  0.74432439957E+02  0.00000000000E+00 0.  1.
         -1    1    1    2    0  502 -0.69861761754E+02  0.38357086738E+02 -0.29947618231E+03  0.30989984774E+03  0.00000000000E+00 0. -1.
<mgrwt>
<rscale>  1 0.30000000E+03</rscale>
<asrwt>0</asrwt>
<pdfrwt beam="1">  1       21 0.27271603E-01 0.30000000E+03</pdfrwt>
<pdfrwt beam="2">0</pdfrwt>
<totfact> 0.13142254E+03</totfact>
</mgrwt>
</event>
<event>
 6    1  0.1273846E-001  0.3000000E+03  0.7818608E-02  0.1093470E+00
         21   -1    0    0  501  502  0.00000000000E+00  0.00000000000E+00  0.11321610027E+01  0.11321610027E+01  0.00000000000E+00 0. -1.
         13   -1    0    0    0    0 -0.00000000000E+00 -0.00000000000E+00 -0.10000000000E+04  0.10000000000E+04  0.00000000000E+00 0.  1.
    9000005    2    1    2  501    0 -0.28197728790E+02  0.14054172480E+02 -0.33012316668E+03  0.33164573961E+03  0.38677837668E+01 0.  0.
         13    1    3    3    0    0 -0.23639850468E+02  0.12476482679E+02 -0.29137989374E+03  0.29260339647E+03  0.00000000000E+00 0.  1.
          1    1    3    3  501    0 -0.45578783221E+01  0.15776898012E+01 -0.38743272941E+02  0.39042343143E+02  0.00000000000E+00 0.  1.
         -1    1    1    2    0  502  0.28197728790E+02 -0.14054172480E+02 -0.66874467232E+03  0.66948642139E+03  0.00000000000E+00 0. -1.
<mgrwt>
<rscale>  1 0.30000000E+03</rscale>
<asrwt>0</asrwt>
<pdfrwt beam="1">  1       21 0.41169578E-02 0.30000000E+03</pdfrwt>
<pdfrwt beam="2">0</pdfrwt>
<totfact> 0.40053856E+04</totfact>
</mgrwt>
</event>
<event>
 6    1  0.1273846E-001  0.3000000E+03  0.7818608E-02  0.1093470E+00
         21   -1    0    0  501  502  0.00000000000E+00  0.00000000000E+00  0.15031758114E+01  0.15031758114E+01  0.00000000000E+00 0. -1.
         13   -1    0    0    0    0 -0.00000000000E+00 -0.00000000000E+00 -0.10000000000E+04  0.10000000000E+04  0.00000000000E+00 0.  1.
    9000005    2    1    2  501    0  0.25039304736E+02 -0.26555441569E+02 -0.66615430062E+03  0.66716246451E+03  0.34703838215E+01 0.  0.
         13    1    3    3    0    0  0.19899883196E+02 -0.22903302456E+02 -0.54352479835E+03  0.54437098843E+03  0.00000000000E+00 0.  1.
          3    1    3    3  501    0  0.51394215393E+01 -0.36521391128E+01 -0.12262950226E+03  0.12279147608E+03  0.00000000000E+00 0.  1.
         -1    1    1    2    0  502 -0.25039304736E+02  0.26555441569E+02 -0.33234252357E+03  0.33434071130E+03  0.00000000000E+00 0. -1.
<mgrwt>
<rscale>  1 0.30000000E+03</rscale>
<asrwt>0</asrwt>
<pdfrwt beam="1">  1       21 0.54661054E-02 0.30000000E+03</pdfrwt>
<pdfrwt beam="2">0</pdfrwt>
<totfact> 0.24734887E+04</totfact>
</mgrwt>
</event>
<event>
 6    1  0.1273846E-001  0.3000000E+03  0.7818608E-02  0.1093470E+00
         21   -1    0    0  501  502  0.00000000000E+00  0.00000000000E+00  0.10862669084E+01  0.10862669084E+01  0.00000000000E+00 0. -1.
         13   -1    0    0    0    0 -0.00000000000E+00 -0.00000000000E+00 -0.10000000000E+04  0.10000000000E+04  0.00000000000E+00 0.  1.
    9000005    2    1    2  501    0 -0.55361127889E+01  0.32429860819E+02 -0.50456556084E+03  0.50564458535E+03  0.27743629396E+01 0.  0.
         13    1    3    3    0    0 -0.36044296720E+01  0.27248355525E+02 -0.41940739867E+03  0.42030706733E+03  0.00000000000E+00 0.  1.
          3    1    3    3  501    0 -0.19316831169E+01  0.51815052942E+01 -0.85158162174E+02  0.85337518019E+02  0.00000000000E+00 0.  1.
         -3    1    1    2    0  502  0.55361127889E+01 -0.32429860819E+02 -0.49434817225E+03  0.49544168156E+03  0.00000000000E+00 0. -1.
<mgrwt>
<rscale>  1 0.30000000E+03</rscale>
<asrwt>0</asrwt>
<pdfrwt beam="1">  1       21 0.39500698E-02 0.30000000E+03</pdfrwt>
<pdfrwt beam="2">0</pdfrwt>
<totfact> 0.42945955E+04</totfact>
</mgrwt>
</event>
<event>
 6    1  0.1273846E-001  0.3000000E+03  0.7818608E-02  0.1093470E+00
         21   -1    0    0  501  502  0.00000000000E+00  0.00000000000E+00  0.32042034292E+01  0.32042034292E+01  0.00000000000E+00 0. -1.
         13   -1    0    0    0    0 -0.00000000000E+00 -0.00000000000E+00 -0.10000000000E+04  0.10000000000E+04  0.00000000000E+00 0.  1.
    9000005    2    1    2  501    0 -0.12401172668E+02 -0.48312583991E+02 -0.73523639584E+03  0.73693138288E+03  0.27222127435E+01 0.  0.
         13    1    3    3    0    0 -0.70226700655E+01 -0.22413068974E+02 -0.35433223648E+03  0.35510983845E+03  0.00000000000E+00 0.  1.
          3    1    3    3  501    0 -0.53785026027E+01 -0.25899515018E+02 -0.38090415936E+03  0.38182154443E+03  0.00000000000E+00 0.  1.
         -3    1    1    2    0  502  0.12401172668E+02  0.48312583991E+02 -0.26155940073E+03  0.26627282055E+03  0.00000000000E+00 0. -1.
<mgrwt>
<rscale>  1 0.30000000E+03</rscale>
<asrwt>0</asrwt>
<pdfrwt beam="1">  1       21 0.11651673E-01 0.30000000E+03</pdfrwt>
<pdfrwt beam="2">0</pdfrwt>
<totfact> 0.65368666E+03</totfact>
</mgrwt>
</event>
<event>
 6    1  0.1273846E-001  0.3000000E+03  0.7818608E-02  0.1093470E+00
         21   -1    0    0  501  502  0.00000000000E+00  0.00000000000E+00  0.46051580278E+01  0.46051580278E+01  0.00000000000E+00 0. -1.
         13   -1    0    0    0    0 -0.00000000000E+00 -0.00000000000E+00 -0.10000000000E+04  0.10000000000E+04  0.00000000000E+00 0.  1.
    9000005    2    1    2  501    0 -0.14519260512E+02 -0.31243524980E+02 -0.93040443361E+03  0.93104756183E+03  0.31914781490E+01 0.  0.
         13    1    3    3    0    0 -0.16810730676E+01 -0.52589902847E+01 -0.17606040978E+03  0.17614695818E+03  0.00000000000E+00 0.  1.
          3    1    3    3  501    0 -0.12838187444E+02 -0.25984534695E+02 -0.75434402383E+03  0.75490060365E+03  0.00000000000E+00 0.  1.
         -3    1    1    2    0  502  0.14519260512E+02  0.31243524980E+02 -0.64990408359E+02  0.73557596193E+02  0.00000000000E+00 0. -1.
<mgrwt>
<rscale>  1 0.30000000E+03</rscale>
<asrwt>0</asrwt>
<pdfrwt beam="1">  1       21 0.16746065E-01 0.30000000E+03</pdfrwt>
<pdfrwt beam="2">0</pdfrwt>
<totfact> 0.33547030E+03</totfact>
</mgrwt>
</event>
<event>
 6    1  0.1273846E-001  0.3000000E+03  0.7818608E-02  0.1093470E+00
         21   -1    0    0  501  502  0.00000000000E+00  0.00000000000E+00  0.16809216495E+01  0.16809216495E+01  0.00000000000E+00 0. -1.
         13   -1    0    0    0    0 -0.00000000000E+00 -0.00000000000E+00 -0.10000000000E+04  0.10000000000E+04  0.00000000000E+00 0.  1.
    9000005    2    1    2  501    0 -0.33669241422E+02 -0.11721715095E+02 -0.74599872216E+03  0.74685435598E+03  0.25137938824E+01 0.  0.
         13    1    3    3    0    0 -0.12893931516E+02 -0.53440177285E+01 -0.31126954803E+03  0.31158232223E+03  0.00000000000E+00 0.  1.
          1    1    3    3  501    0 -0.20775309906E+02 -0.63776973663E+01 -0.43472917413E+03  0.43527203375E+03  0.00000000000E+00 0.  1.
         -3    1    1    2    0  502  0.33669241422E+02  0.11721715095E+02 -0.25232035619E+03  0.25482656567E+03  0.00000000000E+00 0. -1.
<mgrwt>
<rscale>  1 0.30000000E+03</rscale>
<asrwt>0</asrwt>
<pdfrwt beam="1">  1       21 0.61124553E-02 0.30000000E+03</pdfrwt>
<pdfrwt beam="2">0</pdfrwt>
<totfact> 0.20407289E+04</totfact>
</mgrwt>
</event>
<event>
 6    1  0.1273846E-001  0.3000000E+03  0.7818608E-02  0.1093470E+00
         21   -1    0    0  501  502  0.00000000000E+00  0.00000000000E+00  0.23412984930E+01  0.23412984930E+01  0.00000000000E+00 0. -1.
         13   -1    0    0    0    0 -0.00000000000E+00 -0.00000000000E+00 -0.10000000000E+04  0.10000000000E+04  0.00000000000E+00 0.  1.
    9000005    2    1    2  501    0  0.25341114536E+02 -0.25037039006E+02 -0.83772130303E+03  0.83848466347E+03  0.32440596652E+01 0.  0.
         13    1    3    3    0    0  0.24603763901E+02 -0.23514035297E+02 -0.78804254185E+03  0.78877709324E+03  0.00000000000E+00 0.  1.
          1    1    3    3  501    0  0.73735063538E+00 -0.15230037085E+01 -0.49678761175E+02  0.49707570229E+02  0.00000000000E+00 0.  1.
         -1    1    1    2    0  502 -0.25341114536E+02  0.25037039006E+02 -0.15993739848E+03  0.16385663502E+03  0.00000000000E+00 0. -1.
<mgrwt>
<rscale>  1 0.30000000E+03</rscale>
<asrwt>0</asrwt>
<pdfrwt beam="1">  1       21 0.85138307E-02 0.30000000E+03</pdfrwt>
<pdfrwt beam="2">0</pdfrwt>
<totfact> 0.11448391E+04</totfact>
</mgrwt>
</event>
<event>
 6    1  0.1273846E-001  0.3000000E+03  0.7818608E-02  0.1093470E+00
         21   -1    0    0  501  502  0.00000000000E+00  0.00000000000E+00  0.19075349665E+01  0.19075349665E+01  0.00000000000E+00 0. -1.
         13   -1    0    0    0    0 -0.00000000000E+00 -0.00000000000E+00 -0.10000000000E+04  0.10000000000E+04  0.00000000000E+00 0.  1.
    9000005    2    1    2  501    0 -0.31281256414E+02  0.85250672271E+01 -0.83436077001E+03  0.83499659546E+03  0.31978292584E+01 0.  0.
         13    1    3    3    0    0 -0.28075221166E+02  0.75279866746E+01 -0.76980674938E+03  0.77035532062E+03  0.00000000000E+00 0.  1.
          1    1    3    3  501    0 -0.32060352475E+01  0.99708055254E+00 -0.64554020638E+02  0.64641274834E+02  0.00000000000E+00 0.  1.
         -3    1    1    2    0  502  0.31281256414E+02 -0.85250672271E+01 -0.16373169502E+03  0.16691093951E+03  0.00000000000E+00 0. -1.
<mgrwt>
<rscale>  1 0.30000000E+03</rscale>
<asrwt>0</asrwt>
<pdfrwt beam="1">  1       21 0.69365054E-02 0.30000000E+03</pdfrwt>
<pdfrwt beam="2">0</pdfrwt>
<totfact> 0.16393105E+04</totfact>
</mgrwt>
</event>
<event>
 6    1  0.1273846E-001  0.3000000E+03  0.7818608E-02  0.1093470E+00
         21   -1    0    0  501  502  0.00000000000E+00  0.00000000000E+00  0.15470551641E+01  0.15470551641E+01  0.00000000000E+00 0. -1.
         13   -1    0    0    0    0 -0.00000000000E+00 -0.00000000000E+00 -0.10000000000E+04  0.10000000000E+04  0.00000000000E+00 0.  1.
    9000005    2    1    2  501    0 -0.19924749326E+02  0.25453263353E+02 -0.78384199077E+03  0.78451543107E+03  0.33661319579E+01 0.  0.
         13    1    3    3    0    0 -0.53059033851E+01  0.67473017502E+01 -0.17418145899E+03  0.17439283055E+03  0.00000000000E+00 0.  1.
          1    1    3    3  501    0 -0.14618845941E+02  0.18705961603E+02 -0.60966053178E+03  0.61012260052E+03  0.00000000000E+00 0.  1.
         -1    1    1    2    0  502  0.19924749326E+02 -0.25453263353E+02 -0.21461095407E+03  0.21703162409E+03  0.00000000000E+00 0. -1.
<mgrwt>
<rscale>  1 0.30000000E+03</rscale>
<asrwt>0</asrwt>
<pdfrwt beam="1">  1       21 0.56256670E-02 0.30000000E+03</pdfrwt>
<pdfrwt beam="2">0</pdfrwt>
<totfact> 0.23543439E+04</totfact>
</mgrwt>
</event>
<event>
 6    1  0.1273846E-001  0.3000000E+03  0.7818608E-02  0.1093470E+00
         21   -1    0    0  501  502  0.00000000000E+00  0.00000000000E+00  0.16989081562E+01  0.16989081562E+01  0.00000000000E+00 0. -1.
         13   -1    0    0    0    0 -0.00000000000E+00 -0.00000000000E+00 -0.10000000000E+04  0.10000000000E+04  0.00000000000E+00 0.  1.
    9000005    2    1    2  501    0 -0.88242170555E+01 -0.40154726424E+02 -0.50305963298E+03  0.50475386950E+03  0.41479618241E+01 0.  0.
         13    1    3    3    0    0 -0.53513146981E+01 -0.15691571345E+02 -0.19202089207E+03  0.19273527174E+03  0.00000000000E+00 0.  1.
          3    1    3    3  501    0 -0.34729023575E+01 -0.24463155078E+02 -0.31103874090E+03  0.31201859776E+03  0.00000000000E+00 0.  1.
         -1    1    1    2    0  502  0.88242170555E+01  0.40154726424E+02 -0.49524145887E+03  0.49694503865E+03  0.00000000000E+00 0. -1.
<mgrwt>
<rscale>  1 0.30000000E+03</rscale>
<asrwt>0</asrwt>
<pdfrwt beam="1">  1       21 0.61778609E-02 0.30000000E+03</pdfrwt>
<pdfrwt beam="2">0</pdfrwt>
<totfact> 0.20035733E+04</totfact>
</mgrwt>
</event>
<event>
 6    1  0.1273846E-001  0.3000000E+03  0.7818608E-02  0.1093470E+00
         21   -1    0    0  501  502  0.00000000000E+00  0.00000000000E+00  0.12749475633E+01  0.12749475633E+01  0.00000000000E+00 0. -1.
         13   -1    0    0    0    0 -0.00000000000E+00 -0.00000000000E+00 -0.10000000000E+04  0.10000000000E+04  0.00000000000E+00 0.  1.
    9000005    2    1    2  501    0 -0.27735322179E+02 -0.22282353513E+02 -0.46648794525E+03  0.46785007971E+03  0.26348908065E+01 0.  0.
         13    1    3    3    0    0 -0.56711682649E+01 -0.59788022467E+01 -0.10745663144E+03  0.10777214791E+03  0.00000000000E+00 0.  1.
          3    1    3    3  501    0 -0.22064153914E+02 -0.16303551267E+02 -0.35903131381E+03  0.36007793180E+03  0.00000000000E+00 0.  1.
         -3    1    1    2    0  502  0.27735322179E+02  0.22282353513E+02 -0.53223710719E+03  0.53342486785E+03  0.00000000000E+00 0. -1.
<mgrwt>
<rscale>  1 0.30000000E+03</rscale>
<asrwt>0</asrwt>
<pdfrwt beam="1">  1       21 0.46361827E-02 0.30000000E+03</pdfrwt>
<pdfrwt beam="2">0</pdfrwt>
<totfact> 0.32756772E+04</totfact>
</mgrwt>
</event>
<event>
 6    1  0.1273846E-001  0.3000000E+03  0.7818608E-02  0.1093470E+00
         21   -1    0    0  501  502  0.00000000000E+00  0.00000000000E+00  0.12233334720E+01  0.12233334720E+01  0.00000000000E+00 0. -1.
         13   -1    0    0    0    0 -0.00000000000E+00 -0.00000000000E+00 -0.10000000000E+04  0.10000000000E+04  0.00000000000E+00 0.  1.
    9000005    2    1    2  501    0  0.25971071735E+02 -0.21293476110E+02 -0.63869214122E+03  0.63957602730E+03  0.13909545895E+01 0.  0.
         13    1    3    3    0    0  0.18849295835E+02 -0.15366474564E+02 -0.47400607659E+03  0.47462952409E+03  0.00000000000E+00 0.  1.
          3    1    3    3  501    0  0.71217758993E+01 -0.59270015462E+01 -0.16468606462E+03  0.16494650321E+03  0.00000000000E+00 0.  1.
         -1    1    1    2    0  502 -0.25971071735E+02  0.21293476110E+02 -0.36008452531E+03  0.36164730617E+03  0.00000000000E+00 0. -1.
<mgrwt>
<rscale>  1 0.30000000E+03</rscale>
<asrwt>0</asrwt>
<pdfrwt beam="1">  1       21 0.44484947E-02 0.30000000E+03</pdfrwt>
<pdfrwt beam="2">0</pdfrwt>
<totfact> 0.35137603E+04</totfact>
</mgrwt>
</event>
<event>
 6    1  0.1273846E-001  0.3000000E+03  0.7818608E-02  0.1093470E+00
         21   -1    0    0  501  502  0.00000000000E+00  0.00000000000E+00  0.11209334283E+01  0.11209334283E+01  0.00000000000E+00 0. -1.
         13   -1    0    0    0    0 -0.00000000000E+00 -0.00000000000E+00 -0.10000000000E+04  0.10000000000E+04  0.00000000000E+00 0.  1.
    9000005    2    1    2  501    0 -0.27275245865E+02 -0.19071732518E+02 -0.46341407540E+03  0.46462263260E+03  0.37303390677E+01 0.  0.
         13    1    3    3    0    0 -0.88612575685E+01 -0.61024593640E+01 -0.17502842975E+03  0.17535881249E+03  0.00000000000E+00 0.  1.
          1    1    3    3  501    0 -0.18413988297E+02 -0.12969273154E+02 -0.28838564564E+03  0.28926382011E+03  0.00000000000E+00 0.  1.
         -1    1    1    2    0  502  0.27275245865E+02  0.19071732518E+02 -0.53546499118E+03  0.53649830083E+03  0.00000000000E+00 0. -1.
<mgrwt>
<rscale>  1 0.30000000E+03</rscale>
<asrwt>0</asrwt>
<pdfrwt beam="1">  1       21 0.40761302E-02 0.30000000E+03</pdfrwt>
<pdfrwt beam="2">0</pdfrwt>
<totfact> 0.40732651E+04</totfact>
</mgrwt>
</event>
<event>
 6    1  0.1273846E-001  0.3000000E+03  0.7818608E-02  0.1093470E+00
         21   -1    0    0  501  502  0.00000000000E+00  0.00000000000E+00  0.10464014895E+01  0.10464014895E+01  0.00000000000E+00 0. -1.
         13   -1    0    0    0    0 -0.00000000000E+00 -0.00000000000E+00 -0.10000000000E+04  0.10000000000E+04  0.00000000000E+00 0.  1.
    9000005    2    1    2  501    0  0.28654655155E+02 -0.14828564702E+02 -0.49467421710E+03  0.49573593246E+03  0.32493194836E+01 0.  0.
         13    1    3    3    0    0  0.23522263197E+02 -0.11026387730E+02 -0.38431247432E+03  0.38518950662E+03  0.00000000000E+00 0.  1.
          1    1    3    3  501    0  0.51323919584E+01 -0.38021769715E+01 -0.11036174278E+03  0.11054642584E+03  0.00000000000E+00 0.  1.
         -3    1    1    2    0  502 -0.28654655155E+02  0.14828564702E+02 -0.50427938141E+03  0.50531046903E+03  0.00000000000E+00 0. -1.
<mgrwt>
<rscale>  1 0.30000000E+03</rscale>
<asrwt>0</asrwt>
<pdfrwt beam="1">  1       21 0.38051043E-02 0.30000000E+03</pdfrwt>
<pdfrwt beam="2">0</pdfrwt>
<totfact> 0.45732819E+04</totfact>
</mgrwt>
</event>
<event>
 6    1  0.1273846E-001  0.3000000E+03  0.7818608E-02  0.1093470E+00
         21   -1    0    0  501  502  0.00000000000E+00  0.00000000000E+00  0.11264905627E+01  0.11264905627E+01  0.00000000000E+00 0. -1.
         13   -1    0    0    0    0 -0.00000000000E+00 -0.00000000000E+00 -0.10000000000E+04  0.10000000000E+04  0.00000000000E+00 0.  1.
    9000005    2    1    2  501    0 -0.71401684085E+01  0.30814252240E+02 -0.33885470127E+03  0.34035018402E+03  0.39037222738E+01 0.  0.
         13    1    3    3    0    0 -0.64707778647E+01  0.24022937285E+02 -0.27925437598E+03  0.28036044476E+03  0.00000000000E+00 0.  1.
          1    1    3    3  501    0 -0.66939054380E+00  0.67913149546E+01 -0.59600325286E+02  0.59989739262E+02  0.00000000000E+00 0.  1.
         -3    1    1    2    0  502  0.71401684085E+01 -0.30814252240E+02 -0.66001880817E+03  0.66077630654E+03  0.00000000000E+00 0. -1.
<mgrwt>
<rscale>  1 0.30000000E+03</rscale>
<asrwt>0</asrwt>
<pdfrwt beam="1">  1       21 0.40963380E-02 0.30000000E+03</pdfrwt>
<pdfrwt beam="2">0</pdfrwt>
<totfact> 0.40394455E+04</totfact>
</mgrwt>
</event>
<event>
 6    1  0.1273846E-001  0.3000000E+03  0.7818608E-02  0.1093470E+00
         21   -1    0    0  501  502  0.00000000000E+00  0.00000000000E+00  0.10462211615E+01  0.10462211615E+01  0.00000000000E+00 0. -1.
         13   -1    0    0    0    0 -0.00000000000E+00 -0.00000000000E+00 -0.10000000000E+04  0.10000000000E+04  0.00000000000E+00 0.  1.
    9000005    2    1    2  501    0 -0.99949852560E+01  0.30427298149E+02 -0.55781497345E+03  0.55874636154E+03  0.37724958185E+01 0.  0.
         13    1    3    3    0    0 -0.19753693610E+01  0.11801638250E+02 -0.20294277168E+03  0.20329522701E+03  0.00000000000E+00 0.  1.
          1    1    3    3  501    0 -0.80196158950E+01  0.18625659899E+02 -0.35487220177E+03  0.35545113452E+03  0.00000000000E+00 0.  1.
         -3    1    1    2    0  502  0.99949852560E+01 -0.30427298149E+02 -0.44113880539E+03  0.44229985963E+03  0.00000000000E+00 0. -1.
<mgrwt>
<rscale>  1 0.30000000E+03</rscale>
<asrwt>0</asrwt>
<pdfrwt beam="1">  1       21 0.38044486E-02 0.30000000E+03</pdfrwt>
<pdfrwt beam="2">0</pdfrwt>
<totfact> 0.45746064E+04</totfact>
</mgrwt>
</event>
<event>
 6    1  0.1273846E-001  0.3000000E+03  0.7818608E-02  0.1093470E+00
         21   -1    0    0  501  502  0.00000000000E+00  0.00000000000E+00  0.20849650382E+01  0.20849650382E+01  0.00000000000E+00 0. -1.
         13   -1    0    0    0    0 -0.00000000000E+00 -0.00000000000E+00 -0.10000000000E+04  0.10000000000E+04  0.00000000000E+00 0.  1.
    9000005    2    1    2  501    0  0.13819002693E+02  0.41862663694E+02 -0.37085953748E+03  0.37348171627E+03  0.28893592398E+01 0.  0.
         13    1    3    3    0    0  0.10890413443E+02  0.35727098689E+02 -0.30856797202E+03  0.31082023750E+03  0.00000000000E+00 0.  1.
          1    1    3    3  501    0  0.29285892495E+01  0.61355650052E+01 -0.62291565462E+02  0.62661478762E+02  0.00000000000E+00 0.  1.
         -3    1    1    2    0  502 -0.13819002693E+02 -0.41862663694E+02 -0.62705549748E+03  0.62860324877E+03  0.00000000000E+00 0. -1.
<mgrwt>
<rscale>  1 0.30000000E+03</rscale>
<asrwt>0</asrwt>
<pdfrwt beam="1">  1       21 0.75817070E-02 0.30000000E+03</pdfrwt>
<pdfrwt beam="2">0</pdfrwt>
<totfact> 0.14035585E+04</totfact>
</mgrwt>
</event>
<event>
 6    1  0.1273846E-001  0.3000000E+03  0.7818608E-02  0.1093470E+00
         21   -1    0    0  501  502  0.00000000000E+00  0.00000000000E+00  0.33854929011E+01  0.33854929011E+01  0.00000000000E+00 0. -1.
         13   -1    0    0    0    0 -0.00000000000E+00 -0.00000000000E+00 -0.10000000000E+04  0.10000000000E+04  0.00000000000E+00 0.  1.
    9000005    2    1    2  501    0 -0.11514094217E+02 -0.36209395763E+02 -0.87813214460E+03  0.87895975228E+03  0.32385230605E+01 0.  0.
         13    1    3    3    0    0 -0.11520427595E+02 -0.36078704914E+02 -0.87732251977E+03  0.87813962266E+03  0.00000000000E+00 0.  1.
          3    1    3    3  501    0  0.63333774626E-02 -0.13069084935E+00 -0.80962483479E+00  0.82012961346E+00  0.00000000000E+00 0.  1.
         -3    1    1    2    0  502  0.11514094217E+02  0.36209395763E+02 -0.11848236250E+03  0.12442574063E+03  0.00000000000E+00 0. -1.
<mgrwt>
<rscale>  1 0.30000000E+03</rscale>
<asrwt>0</asrwt>
<pdfrwt beam="1">  1       21 0.12310909E-01 0.30000000E+03</pdfrwt>
<pdfrwt beam="2">0</pdfrwt>
<totfact> 0.59155960E+03</totfact>
</mgrwt>
</event>
<event>
 6    1  0.1273846E-001  0.3000000E+03  0.7818608E-02  0.1093470E+00
         21   -1    0    0  501  502  0.00000000000E+00  0.00000000000E+00  0.14413216754E+01  0.14413216754E+01  0.00000000000E+00 0. -1.
         13   -1    0    0    0    0 -0.00000000000E+00 -0.00000000000E+00 -0.10000000000E+04  0.10000000000E+04  0.00000000000E+00 0.  1.
    9000005    2    1    2  501    0 -0.17376599022E+02 -0.25201680089E+02 -0.79512825785E+03  0.79572062061E+03  0.22997299604E+01 0.  0.
         13    1    3    3    0    0 -0.32771304628E+01 -0.41028322349E+01 -0.15788673581E+03  0.15797403003E+03  0.00000000000E+00 0.  1.
          1    1    3    3  501    0 -0.14099468559E+02 -0.21098847854E+02 -0.63724152203E+03  0.63774659058E+03  0.00000000000E+00 0.  1.
         -1    1    1    2    0  502  0.17376599022E+02  0.25201680089E+02 -0.20343042048E+03  0.20572070107E+03  0.00000000000E+00 0. -1.
<mgrwt>
<rscale>  1 0.30000000E+03</rscale>
<asrwt>0</asrwt>
<pdfrwt beam="1">  1       21 0.52411808E-02 0.30000000E+03</pdfrwt>
<pdfrwt beam="2">0</pdfrwt>
<totfact> 0.26579202E+04</totfact>
</mgrwt>
</event>
<event>
 6    1  0.1273846E-001  0.3000000E+03  0.7818608E-02  0.1093470E+00
         21   -1    0    0  501  502  0.00000000000E+00  0.00000000000E+00  0.31483199654E+01  0.31483199654E+01  0.00000000000E+00 0. -1.
         13   -1    0    0    0    0 -0.00000000000E+00 -0.00000000000E+00 -0.10000000000E+04  0.10000000000E+04  0.00000000000E+00 0.  1.
    9000005    2    1    2  501    0  0.54453164164E+02  0.55654495469E+01 -0.60258236682E+03  0.60509755353E+03  0.64357727642E+01 0.  0.
         13    1    3    3    0    0  0.16987860275E+02  0.29697563041E+01 -0.22084168113E+03  0.22151400627E+03  0.00000000000E+00 0.  1.
          1    1    3    3  501    0  0.37465303889E+02  0.25956932428E+01 -0.38174068568E+03  0.38358354726E+03  0.00000000000E+00 0.  1.
         -1    1    1    2    0  502 -0.54453164164E+02 -0.55654495469E+01 -0.39426931322E+03  0.39805076644E+03  0.00000000000E+00 0. -1.
<mgrwt>
<rscale>  1 0.30000000E+03</rscale>
<asrwt>0</asrwt>
<pdfrwt beam="1">  1       21 0.11448460E-01 0.30000000E+03</pdfrwt>
<pdfrwt beam="2">0</pdfrwt>
<totfact> 0.67480788E+03</totfact>
</mgrwt>
</event>
<event>
 6    1  0.1273846E-001  0.3000000E+03  0.7818608E-02  0.1093470E+00
         21   -1    0    0  501  502  0.00000000000E+00  0.00000000000E+00  0.14828538023E+01  0.14828538023E+01  0.00000000000E+00 0. -1.
         13   -1    0    0    0    0 -0.00000000000E+00 -0.00000000000E+00 -0.10000000000E+04  0.10000000000E+04  0.00000000000E+00 0.  1.
    9000005    2    1    2  501    0 -0.37741278744E+02 -0.31457712779E+01 -0.58291116102E+03  0.58415488336E+03  0.41480252151E+01 0.  0.
         13    1    3    3    0    0 -0.25040980080E+02 -0.39575422159E+01 -0.37891952249E+03  0.37976666171E+03  0.00000000000E+00 0.  1.
          3    1    3    3  501    0 -0.12700298664E+02  0.81177093797E+00 -0.20399163853E+03  0.20438822165E+03  0.00000000000E+00 0.  1.
         -1    1    1    2    0  502  0.37741278744E+02  0.31457712779E+01 -0.41560598518E+03  0.41732797045E+03  0.00000000000E+00 0. -1.
<mgrwt>
<rscale>  1 0.30000000E+03</rscale>
<asrwt>0</asrwt>
<pdfrwt beam="1">  1       21 0.53922070E-02 0.30000000E+03</pdfrwt>
<pdfrwt beam="2">0</pdfrwt>
<totfact> 0.25318425E+04</totfact>
</mgrwt>
</event>
<event>
 6    1  0.1273846E-001  0.3000000E+03  0.7818608E-02  0.1093470E+00
         21   -1    0    0  501  502  0.00000000000E+00  0.00000000000E+00  0.23845295352E+01  0.23845295352E+01  0.00000000000E+00 0. -1.
         13   -1    0    0    0    0 -0.00000000000E+00 -0.00000000000E+00 -0.10000000000E+04  0.10000000000E+04  0.00000000000E+00 0.  1.
    9000005    2    1    2  501    0  0.30463207973E+02  0.12731005491E+02 -0.86782930144E+03  0.86846464598E+03  0.36137711302E+01 0.  0.
         13    1    3    3    0    0  0.21371746466E+02  0.10670919085E+02 -0.63025972997E+03  0.63071225395E+03  0.00000000000E+00 0.  1.
          1    1    3    3  501    0  0.90914615066E+01  0.20600864060E+01 -0.23756957147E+03  0.23775239203E+03  0.00000000000E+00 0.  1.
         -3    1    1    2    0  502 -0.30463207973E+02 -0.12731005491E+02 -0.12978616903E+03  0.13391988355E+03  0.00000000000E+00 0. -1.
<mgrwt>
<rscale>  1 0.30000000E+03</rscale>
<asrwt>0</asrwt>
<pdfrwt beam="1">  1       21 0.86710348E-02 0.30000000E+03</pdfrwt>
<pdfrwt beam="2">0</pdfrwt>
<totfact> 0.11084637E+04</totfact>
</mgrwt>
</event>
<event>
 6    1  0.1273846E-001  0.3000000E+03  0.7818608E-02  0.1093470E+00
         21   -1    0    0  501  502  0.00000000000E+00  0.00000000000E+00  0.99383816473E+00  0.99383816473E+00  0.00000000000E+00 0. -1.
         13   -1    0    0    0    0 -0.00000000000E+00 -0.00000000000E+00 -0.10000000000E+04  0.10000000000E+04  0.00000000000E+00 0.  1.
    9000005    2    1    2  501    0  0.24409748198E+02 -0.18845128651E+02 -0.49126056963E+03  0.49231264028E+03  0.91549889172E+01 0.  0.
         13    1    3    3    0    0  0.10859816076E+02 -0.29086435841E+01 -0.17677088955E+03  0.17712804184E+03  0.00000000000E+00 0.  1.
          1    1    3    3  501    0  0.13549932122E+02 -0.15936485067E+02 -0.31448968008E+03  0.31518459844E+03  0.00000000000E+00 0.  1.
         -1    1    1    2    0  502 -0.24409748198E+02  0.18845128651E+02 -0.50774559220E+03  0.50868119789E+03  0.00000000000E+00 0. -1.
<mgrwt>
<rscale>  1 0.30000000E+03</rscale>
<asrwt>0</asrwt>
<pdfrwt beam="1">  1       21 0.36139646E-02 0.30000000E+03</pdfrwt>
<pdfrwt beam="2">0</pdfrwt>
<totfact> 0.49865492E+04</totfact>
</mgrwt>
</event>
<event>
 6    1  0.1273846E-001  0.3000000E+03  0.7818608E-02  0.1093470E+00
         21   -1    0    0  501  502  0.00000000000E+00  0.00000000000E+00  0.28300898966E+01  0.28300898966E+01  0.00000000000E+00 0. -1.
         13   -1    0    0    0    0 -0.00000000000E+00 -0.00000000000E+00 -0.10000000000E+04  0.10000000000E+04  0.00000000000E+00 0.  1.
    9000005    2    1    2  501    0  0.23629193159E+02 -0.37901945793E+02 -0.77055672211E+03  0.77185729229E+03  0.33348762359E+01 0.  0.
         13    1    3    3    0    0  0.24068429500E+01 -0.43044863811E+01 -0.10427211150E+03  0.10438867148E+03  0.00000000000E+00 0.  1.
          3    1    3    3  501    0  0.21222350209E+02 -0.33597459412E+02 -0.66628461061E+03  0.66746862081E+03  0.00000000000E+00 0.  1.
         -1    1    1    2    0  502 -0.23629193159E+02  0.37901945793E+02 -0.22661318799E+03  0.23097279761E+03  0.00000000000E+00 0. -1.
<mgrwt>
<rscale>  1 0.30000000E+03</rscale>
<asrwt>0</asrwt>
<pdfrwt beam="1">  1       21 0.10291258E-01 0.30000000E+03</pdfrwt>
<pdfrwt beam="2">0</pdfrwt>
<totfact> 0.81726150E+03</totfact>
</mgrwt>
</event>
<event>
 6    1  0.1273846E-001  0.3000000E+03  0.7818608E-02  0.1093470E+00
         21   -1    0    0  501  502  0.00000000000E+00  0.00000000000E+00  0.10674641598E+01  0.10674641598E+01  0.00000000000E+00 0. -1.
         13   -1    0    0    0    0 -0.00000000000E+00 -0.00000000000E+00 -0.10000000000E+04  0.10000000000E+04  0.00000000000E+00 0.  1.
    9000005    2    1    2  501    0  0.31005294856E+02  0.84743040719E+01 -0.41662204956E+03  0.41787054667E+03  0.29528723952E+01 0.  0.
         13    1    3    3    0    0  0.94120091958E+01  0.38869857569E+01 -0.12483326394E+03  0.12524790762E+03  0.00000000000E+00 0.  1.
          3    1    3    3  501    0  0.21593285660E+02  0.45873183150E+01 -0.29178878561E+03  0.29262263905E+03  0.00000000000E+00 0.  1.
         -3    1    1    2    0  502 -0.31005294856E+02 -0.84743040719E+01 -0.58231048628E+03  0.58319691749E+03  0.00000000000E+00 0. -1.
<mgrwt>
<rscale>  1 0.30000000E+03</rscale>
<asrwt>0</asrwt>
<pdfrwt beam="1">  1       21 0.38816960E-02 0.30000000E+03</pdfrwt>
<pdfrwt beam="2">0</pdfrwt>
<totfact> 0.44226201E+04</totfact>
</mgrwt>
</event>
<event>
 6    1  0.1273846E-001  0.3000000E+03  0.7818608E-02  0.1093470E+00
         21   -1    0    0  501  502  0.00000000000E+00  0.00000000000E+00  0.42819812222E+01  0.42819812222E+01  0.00000000000E+00 0. -1.
         13   -1    0    0    0    0 -0.00000000000E+00 -0.00000000000E+00 -0.10000000000E+04  0.10000000000E+04  0.00000000000E+00 0.  1.
    9000005    2    1    2  501    0  0.40724286376E+02 -0.43491021053E+02 -0.29124097077E+03  0.29728986841E+03  0.31664474305E+01 0.  0.
         13    1    3    3    0    0  0.15198828629E+02 -0.15861311219E+02 -0.11498944404E+03  0.11706903018E+03  0.00000000000E+00 0.  1.
          1    1    3    3  501    0  0.25525457747E+02 -0.27629709834E+02 -0.17625152673E+03  0.18022083823E+03  0.00000000000E+00 0.  1.
         -1    1    1    2    0  502 -0.40724286376E+02  0.43491021053E+02 -0.70447704801E+03  0.70699211282E+03  0.00000000000E+00 0. -1.
<mgrwt>
<rscale>  1 0.30000000E+03</rscale>
<asrwt>0</asrwt>
<pdfrwt beam="1">  1       21 0.15570874E-01 0.30000000E+03</pdfrwt>
<pdfrwt beam="2">0</pdfrwt>
<totfact> 0.38423361E+03</totfact>
</mgrwt>
</event>
<event>
 6    1  0.1273846E-001  0.3000000E+03  0.7818608E-02  0.1093470E+00
         21   -1    0    0  501  502  0.00000000000E+00  0.00000000000E+00  0.10887888492E+01  0.10887888492E+01  0.00000000000E+00 0. -1.
         13   -1    0    0    0    0 -0.00000000000E+00 -0.00000000000E+00 -0.10000000000E+04  0.10000000000E+04  0.00000000000E+00 0.  1.
    9000005    2    1    2  501    0  0.16444704277E+02  0.28473122061E+02 -0.48649353532E+03  0.48761724973E+03  0.36708786736E+01 0.  0.
         13    1    3    3    0    0  0.12922517626E+02  0.21291526706E+02 -0.34504421413E+03  0.34594194640E+03  0.00000000000E+00 0.  1.
          1    1    3    3  501    0  0.35221866518E+01  0.71815953545E+01 -0.14144932118E+03  0.14167530333E+03  0.00000000000E+00 0.  1.
         -1    1    1    2    0  502 -0.16444704277E+02 -0.28473122061E+02 -0.51241767583E+03  0.51347153912E+03  0.00000000000E+00 0. -1.
<mgrwt>
<rscale>  1 0.30000000E+03</rscale>
<asrwt>0</asrwt>
<pdfrwt beam="1">  1       21 0.39592405E-02 0.30000000E+03</pdfrwt>
<pdfrwt beam="2">0</pdfrwt>
<totfact> 0.42778662E+04</totfact>
</mgrwt>
</event>
<event>
 6    1  0.1273846E-001  0.3000000E+03  0.7818608E-02  0.1093470E+00
         21   -1    0    0  501  502  0.00000000000E+00  0.00000000000E+00  0.46329237063E+01  0.46329237063E+01  0.00000000000E+00 0. -1.
         13   -1    0    0    0    0 -0.00000000000E+00 -0.00000000000E+00 -0.10000000000E+04  0.10000000000E+04  0.00000000000E+00 0.  1.
    9000005    2    1    2  501    0 -0.56731345612E+00 -0.33734118278E+02 -0.93390311671E+03  0.93451779761E+03  0.31890527911E+01 0.  0.
         13    1    3    3    0    0  0.94313673915E+00 -0.19029247441E+02 -0.49943808063E+03  0.49980135869E+03  0.00000000000E+00 0.  1.
          1    1    3    3  501    0 -0.15104501953E+01 -0.14704870837E+02 -0.43446503609E+03  0.43471643892E+03  0.00000000000E+00 0.  1.
         -3    1    1    2    0  502  0.56731345612E+00  0.33734118278E+02 -0.61463959580E+02  0.70115126099E+02  0.00000000000E+00 0. -1.
<mgrwt>
<rscale>  1 0.30000000E+03</rscale>
<asrwt>0</asrwt>
<pdfrwt beam="1">  1       21 0.16847031E-01 0.30000000E+03</pdfrwt>
<pdfrwt beam="2">0</pdfrwt>
<totfact> 0.33171845E+03</totfact>
</mgrwt>
</event>
<event>
 6    1  0.1273846E-001  0.3000000E+03  0.7818608E-02  0.1093470E+00
         21   -1    0    0  501  502  0.00000000000E+00  0.00000000000E+00  0.16268517894E+01  0.16268517894E+01  0.00000000000E+00 0. -1.
         13   -1    0    0    0    0 -0.00000000000E+00 -0.00000000000E+00 -0.10000000000E+04  0.10000000000E+04  0.00000000000E+00 0.  1.
    9000005    2    1    2  501    0 -0.25631957021E+02 -0.16161618290E+02 -0.82897909508E+03  0.82954390562E+03  0.43076843783E+01 0.  0.
         13    1    3    3    0    0 -0.19143670305E+02 -0.11421820663E+02 -0.55634841510E+03  0.55679484291E+03  0.00000000000E+00 0.  1.
          1    1    3    3  501    0 -0.64882867161E+01 -0.47397976267E+01 -0.27263067997E+03  0.27274906271E+03  0.00000000000E+00 0.  1.
         -3    1    1    2    0  502  0.25631957021E+02  0.16161618290E+02 -0.16939405313E+03  0.17208294617E+03  0.00000000000E+00 0. -1.
<mgrwt>
<rscale>  1 0.30000000E+03</rscale>
<asrwt>0</asrwt>
<pdfrwt beam="1">  1       21 0.59158372E-02 0.30000000E+03</pdfrwt>
<pdfrwt beam="2">0</pdfrwt>
<totfact> 0.21591197E+04</totfact>
</mgrwt>
</event>
<event>
 6    1  0.1273846E-001  0.3000000E+03  0.7818608E-02  0.1093470E+00
         21   -1    0    0  501  502  0.00000000000E+00  0.00000000000E+00  0.11398321086E+01  0.11398321086E+01  0.00000000000E+00 0. -1.
         13   -1    0    0    0    0 -0.00000000000E+00 -0.00000000000E+00 -0.10000000000E+04  0.10000000000E+04  0.00000000000E+00 0.  1.
    9000005    2    1    2  501    0 -0.32840093697E+02 -0.44370039592E+01 -0.48045947590E+03  0.48168104047E+03  0.87839628617E+01 0.  0.
         13    1    3    3    0    0 -0.30407516233E+02 -0.54480247109E+01 -0.46236308809E+03  0.46339391801E+03  0.00000000000E+00 0.  1.
          3    1    3    3  501    0 -0.24325774642E+01  0.10110207518E+01 -0.18096387809E+02  0.18287122459E+02  0.00000000000E+00 0.  1.
         -1    1    1    2    0  502  0.32840093697E+02  0.44370039592E+01 -0.51840069199E+03  0.51945879164E+03  0.00000000000E+00 0. -1.
<mgrwt>
<rscale>  1 0.30000000E+03</rscale>
<asrwt>0</asrwt>
<pdfrwt beam="1">  1       21 0.41448528E-02 0.30000000E+03</pdfrwt>
<pdfrwt beam="2">0</pdfrwt>
<totfact> 0.39600163E+04</totfact>
</mgrwt>
</event>
<event>
 6    1  0.1273846E-001  0.3000000E+03  0.7818608E-02  0.1093470E+00
         21   -1    0    0  501  502  0.00000000000E+00  0.00000000000E+00  0.30743178546E+01  0.30743178546E+01  0.00000000000E+00 0. -1.
         13   -1    0    0    0    0 -0.00000000000E+00 -0.00000000000E+00 -0.10000000000E+04  0.10000000000E+04  0.00000000000E+00 0.  1.
    9000005    2    1    2  501    0  0.34729939547E+02  0.11839191384E+02 -0.12351698602E+03  0.12889522544E+03  0.33463638976E+01 0.  0.
         13    1    3    3    0    0  0.22019281068E+02  0.79858551192E+01 -0.73293308369E+02  0.76944991210E+02  0.00000000000E+00 0.  1.
          3    1    3    3  501    0  0.12710658478E+02  0.38533362651E+01 -0.50223677653E+02  0.51950234228E+02  0.00000000000E+00 0.  1.
         -1    1    1    2    0  502 -0.34729939547E+02 -0.11839191384E+02 -0.87340869612E+03  0.87417909242E+03  0.00000000000E+00 0. -1.
<mgrwt>
<rscale>  1 0.30000000E+03</rscale>
<asrwt>0</asrwt>
<pdfrwt beam="1">  1       21 0.11179361E-01 0.30000000E+03</pdfrwt>
<pdfrwt beam="2">0</pdfrwt>
<totfact> 0.70438902E+03</totfact>
</mgrwt>
</event>
<event>
 6    1  0.1273846E-001  0.3000000E+03  0.7818608E-02  0.1093470E+00
         21   -1    0    0  501  502  0.00000000000E+00  0.00000000000E+00  0.65547316191E+01  0.65547316191E+01  0.00000000000E+00 0. -1.
         13   -1    0    0    0    0 -0.00000000000E+00 -0.00000000000E+00 -0.10000000000E+04  0.10000000000E+04  0.00000000000E+00 0.  1.
    9000005    2    1    2  501    0  0.33823303784E+02  0.28946461742E+02 -0.91704230997E+03  0.91812778109E+03  0.31797176630E+01 0.  0.
         13    1    3    3    0    0  0.71158097568E+01  0.75397562363E+01 -0.19780791099E+03  0.19807940913E+03  0.00000000000E+00 0.  1.
          3    1    3    3  501    0  0.26707494028E+02  0.21406705506E+02 -0.71923439898E+03  0.72004837195E+03  0.00000000000E+00 0.  1.
         -3    1    1    2    0  502 -0.33823303784E+02 -0.28946461742E+02 -0.76402958411E+02  0.88426950531E+02  0.00000000000E+00 0. -1.
<mgrwt>
<rscale>  1 0.30000000E+03</rscale>
<asrwt>0</asrwt>
<pdfrwt beam="1">  1       21 0.23835438E-01 0.30000000E+03</pdfrwt>
<pdfrwt beam="2">0</pdfrwt>
<totfact> 0.17116562E+03</totfact>
</mgrwt>
</event>
<event>
 6    1  0.1273846E-001  0.3000000E+03  0.7818608E-02  0.1093470E+00
         21   -1    0    0  501  502  0.00000000000E+00  0.00000000000E+00  0.32173837704E+01  0.32173837704E+01  0.00000000000E+00 0. -1.
         13   -1    0    0    0    0 -0.00000000000E+00 -0.00000000000E+00 -0.10000000000E+04  0.10000000000E+04  0.00000000000E+00 0.  1.
    9000005    2    1    2  501    0 -0.11283523012E+02  0.46895604022E+02 -0.76189618464E+03  0.76342966242E+03  0.35408639057E+01 0.  0.
         13    1    3    3    0    0 -0.14329313180E+01  0.83988407086E+01 -0.11626617689E+03  0.11657794691E+03  0.00000000000E+00 0.  1.
          3    1    3    3  501    0 -0.98505916939E+01  0.38496763313E+02 -0.64563000776E+03  0.64685171551E+03  0.00000000000E+00 0.  1.
         -3    1    1    2    0  502  0.11283523012E+02 -0.46895604022E+02 -0.23488643159E+03  0.23978772135E+03  0.00000000000E+00 0. -1.
<mgrwt>
<rscale>  1 0.30000000E+03</rscale>
<asrwt>0</asrwt>
<pdfrwt beam="1">  1       21 0.11699602E-01 0.30000000E+03</pdfrwt>
<pdfrwt beam="2">0</pdfrwt>
<totfact> 0.64884930E+03</totfact>
</mgrwt>
</event>
<event>
 6    1  0.1273846E-001  0.3000000E+03  0.7818608E-02  0.1093470E+00
         21   -1    0    0  501  502  0.00000000000E+00  0.00000000000E+00  0.20293574903E+01  0.20293574903E+01  0.00000000000E+00 0. -1.
         13   -1    0    0    0    0 -0.00000000000E+00 -0.00000000000E+00 -0.10000000000E+04  0.10000000000E+04  0.00000000000E+00 0.  1.
    9000005    2    1    2  501    0 -0.88856183076E+01 -0.33593240665E+02 -0.81741926077E+03  0.81816456619E+03  0.33984500657E+01 0.  0.
         13    1    3    3    0    0 -0.31018060982E+01 -0.94699985999E+01 -0.20227489482E+03  0.20252020923E+03  0.00000000000E+00 0.  1.
          1    1    3    3  501    0 -0.57838122094E+01 -0.24123242065E+02 -0.61514436595E+03  0.61564435696E+03  0.00000000000E+00 0.  1.
         -1    1    1    2    0  502  0.88856183076E+01  0.33593240665E+02 -0.18055138174E+03  0.18386479130E+03  0.00000000000E+00 0. -1.
<mgrwt>
<rscale>  1 0.30000000E+03</rscale>
<asrwt>0</asrwt>
<pdfrwt beam="1">  1       21 0.73794973E-02 0.30000000E+03</pdfrwt>
<pdfrwt beam="2">0</pdfrwt>
<totfact> 0.14715718E+04</totfact>
</mgrwt>
</event>
<event>
 6    1  0.1273846E-001  0.3000000E+03  0.7818608E-02  0.1093470E+00
         21   -1    0    0  501  502  0.00000000000E+00  0.00000000000E+00  0.16788031795E+01  0.16788031795E+01  0.00000000000E+00 0. -1.
         13   -1    0    0    0    0 -0.00000000000E+00 -0.00000000000E+00 -0.10000000000E+04  0.10000000000E+04  0.00000000000E+00 0.  1.
    9000005    2    1    2  501    0 -0.28519873076E+02 -0.27698966958E+02 -0.61831656113E+03  0.61960009521E+03  0.28796347834E+01 0.  0.
         13    1    3    3    0    0 -0.13147386100E+02 -0.13913963725E+02 -0.27914381278E+03  0.27979942881E+03  0.00000000000E+00 0.  1.
          3    1    3    3  501    0 -0.15372486976E+02 -0.13785003233E+02 -0.33917274834E+03  0.33980066640E+03  0.00000000000E+00 0.  1.
         -3    1    1    2    0  502  0.28519873076E+02  0.27698966958E+02 -0.38000463570E+03  0.38207870797E+03  0.00000000000E+00 0. -1.
<mgrwt>
<rscale>  1 0.30000000E+03</rscale>
<asrwt>0</asrwt>
<pdfrwt beam="1">  1       21 0.61047517E-02 0.30000000E+03</pdfrwt>
<pdfrwt beam="2">0</pdfrwt>
<totfact> 0.20451755E+04</totfact>
</mgrwt>
</event>
<event>
 6    1  0.1273846E-001  0.3000000E+03  0.7818608E-02  0.1093470E+00
         21   -1    0    0  501  502  0.00000000000E+00  0.00000000000E+00  0.40460056760E+01  0.40460056760E+01  0.00000000000E+00 0. -1.
         13   -1    0    0    0    0 -0.00000000000E+00 -0.00000000000E+00 -0.10000000000E+04  0.10000000000E+04  0.00000000000E+00 0.  1.
    9000005    2    1    2  501    0  0.85805535201E+00  0.52588741915E+02 -0.77996348309E+03  0.78174392972E+03  0.37715581737E+01 0.  0.
         13    1    3    3    0    0 -0.10614265869E+01  0.68312942144E+01 -0.10975375302E+03  0.10997126674E+03  0.00000000000E+00 0.  1.
          3    1    3    3  501    0  0.19194819389E+01  0.45757447700E+02 -0.67020973007E+03  0.67177266297E+03  0.00000000000E+00 0.  1.
         -3    1    1    2    0  502 -0.85805535201E+00 -0.52588741915E+02 -0.21599051123E+03  0.22230207596E+03  0.00000000000E+00 0. -1.
<mgrwt>
<rscale>  1 0.30000000E+03</rscale>
<asrwt>0</asrwt>
<pdfrwt beam="1">  1       21 0.14712779E-01 0.30000000E+03</pdfrwt>
<pdfrwt beam="2">0</pdfrwt>
<totfact> 0.42678941E+03</totfact>
</mgrwt>
</event>
<event>
 6    1  0.1273846E-001  0.3000000E+03  0.7818608E-02  0.1093470E+00
         21   -1    0    0  501  502  0.00000000000E+00  0.00000000000E+00  0.21050905423E+01  0.21050905423E+01  0.00000000000E+00 0. -1.
         13   -1    0    0    0    0 -0.00000000000E+00 -0.00000000000E+00 -0.10000000000E+04  0.10000000000E+04  0.00000000000E+00 0.  1.
    9000005    2    1    2  501    0  0.21064522372E+02  0.39680665905E+02 -0.59668862748E+03  0.59839139243E+03  0.40830153844E+01 0.  0.
         13    1    3    3    0    0  0.16166290717E+02  0.30708035233E+02 -0.48228221492E+03  0.48352917928E+03  0.00000000000E+00 0.  1.
          1    1    3    3  501    0  0.48982316545E+01  0.89726306721E+01 -0.11440641256E+03  0.11486221315E+03  0.00000000000E+00 0.  1.
         -3    1    1    2    0  502 -0.21064522372E+02 -0.39680665905E+02 -0.40120628197E+03  0.40371369811E+03  0.00000000000E+00 0. -1.
<mgrwt>
<rscale>  1 0.30000000E+03</rscale>
<asrwt>0</asrwt>
<pdfrwt beam="1">  1       21 0.76548908E-02 0.30000000E+03</pdfrwt>
<pdfrwt beam="2">0</pdfrwt>
<totfact> 0.13801327E+04</totfact>
</mgrwt>
</event>
<event>
 6    1  0.1273846E-001  0.3000000E+03  0.7818608E-02  0.1093470E+00
         21   -1    0    0  501  502  0.00000000000E+00  0.00000000000E+00  0.21191921926E+01  0.21191921926E+01  0.00000000000E+00 0. -1.
         13   -1    0    0    0    0 -0.00000000000E+00 -0.00000000000E+00 -0.10000000000E+04  0.10000000000E+04  0.00000000000E+00 0.  1.
    9000005    2    1    2  501    0  0.42064269373E+02 -0.12274177326E+02 -0.65166690827E+03  0.65314337294E+03  0.25393110427E+01 0.  0.
         13    1    3    3    0    0  0.19829958812E+02 -0.50570854153E+01 -0.28853152732E+03  0.28925636317E+03  0.00000000000E+00 0.  1.
          3    1    3    3  501    0  0.22234310561E+02 -0.72170919104E+01 -0.36313538095E+03  0.36388700977E+03  0.00000000000E+00 0.  1.
         -1    1    1    2    0  502 -0.42064269373E+02  0.12274177326E+02 -0.34621389954E+03  0.34897581925E+03  0.00000000000E+00 0. -1.
<mgrwt>
<rscale>  1 0.30000000E+03</rscale>
<asrwt>0</asrwt>
<pdfrwt beam="1">  1       21 0.77061697E-02 0.30000000E+03</pdfrwt>
<pdfrwt beam="2">0</pdfrwt>
<totfact> 0.13640763E+04</totfact>
</mgrwt>
</event>
<event>
 6    1  0.1273846E-001  0.3000000E+03  0.7818608E-02  0.1093470E+00
         21   -1    0    0  501  502  0.00000000000E+00  0.00000000000E+00  0.13587300676E+01  0.13587300676E+01  0.00000000000E+00 0. -1.
         13   -1    0    0    0    0 -0.00000000000E+00 -0.00000000000E+00 -0.10000000000E+04  0.10000000000E+04  0.00000000000E+00 0.  1.
    9000005    2    1    2  501    0  0.95756913986E+01  0.35485447347E+02 -0.51461088052E+03  0.51593486506E+03  0.36763842304E+01 0.  0.
         13    1    3    3    0    0  0.35803431300E+01  0.74104411213E+01 -0.11417462042E+03  0.11447085848E+03  0.00000000000E+00 0.  1.
          3    1    3    3  501    0  0.59953482687E+01  0.28075006226E+02 -0.40043626010E+03  0.40146400658E+03  0.00000000000E+00 0.  1.
         -1    1    1    2    0  502 -0.95756913986E+01 -0.35485447347E+02 -0.48403038942E+03  0.48542386501E+03  0.00000000000E+00 0. -1.
<mgrwt>
<rscale>  1 0.30000000E+03</rscale>
<asrwt>0</asrwt>
<pdfrwt beam="1">  1       21 0.49408470E-02 0.30000000E+03</pdfrwt>
<pdfrwt beam="2">0</pdfrwt>
<totfact> 0.29394845E+04</totfact>
</mgrwt>
</event>
<event>
 6    1  0.1273846E-001  0.3000000E+03  0.7818608E-02  0.1093470E+00
         21   -1    0    0  501  502  0.00000000000E+00  0.00000000000E+00  0.10029512217E+01  0.10029512217E+01  0.00000000000E+00 0. -1.
         13   -1    0    0    0    0 -0.00000000000E+00 -0.00000000000E+00 -0.10000000000E+04  0.10000000000E+04  0.00000000000E+00 0.  1.
    9000005    2    1    2  501    0  0.76867336254E+00 -0.31595945731E+02 -0.50635440384E+03  0.50734753471E+03  0.28007207495E+01 0.  0.
         13    1    3    3    0    0  0.16365172390E+01 -0.12957973095E+02 -0.20223753526E+03  0.20265884615E+03  0.00000000000E+00 0.  1.
          1    1    3    3  501    0 -0.86784387646E+00 -0.18637972637E+02 -0.30411686858E+03  0.30468868855E+03  0.00000000000E+00 0.  1.
         -1    1    1    2    0  502 -0.76867336254E+00  0.31595945731E+02 -0.49264264494E+03  0.49365541652E+03  0.00000000000E+00 0. -1.
<mgrwt>
<rscale>  1 0.30000000E+03</rscale>
<asrwt>0</asrwt>
<pdfrwt beam="1">  1       21 0.36471030E-02 0.30000000E+03</pdfrwt>
<pdfrwt beam="2">0</pdfrwt>
<totfact> 0.49107823E+04</totfact>
</mgrwt>
</event>
<event>
 6    1  0.1273846E-001  0.3000000E+03  0.7818608E-02  0.1093470E+00
         21   -1    0    0  501  502  0.00000000000E+00  0.00000000000E+00  0.18659472386E+01  0.18659472386E+01  0.00000000000E+00 0. -1.
         13   -1    0    0    0    0 -0.00000000000E+00 -0.00000000000E+00 -0.10000000000E+04  0.10000000000E+04  0.00000000000E+00 0.  1.
    9000005    2    1    2  501    0  0.36655835013E+02  0.97835606476E+01 -0.73757402130E+03  0.73855833570E+03  0.36891780581E+01 0.  0.
         13    1    3    3    0    0  0.11354632466E+02  0.13143591411E+01 -0.21503587879E+03  0.21533946314E+03  0.00000000000E+00 0.  1.
          3    1    3    3  501    0  0.25301202547E+02  0.84692015065E+01 -0.52253814251E+03  0.52321887256E+03  0.00000000000E+00 0.  1.
         -1    1    1    2    0  502 -0.36655835013E+02 -0.97835606476E+01 -0.26056003146E+03  0.26330761154E+03  0.00000000000E+00 0. -1.
<mgrwt>
<rscale>  1 0.30000000E+03</rscale>
<asrwt>0</asrwt>
<pdfrwt beam="1">  1       21 0.67852770E-02 0.30000000E+03</pdfrwt>
<pdfrwt beam="2">0</pdfrwt>
<totfact> 0.17033181E+04</totfact>
</mgrwt>
</event>
<event>
 6    1  0.1273846E-001  0.3000000E+03  0.7818608E-02  0.1093470E+00
         21   -1    0    0  501  502  0.00000000000E+00  0.00000000000E+00  0.40108485193E+01  0.40108485193E+01  0.00000000000E+00 0. -1.
         13   -1    0    0    0    0 -0.00000000000E+00 -0.00000000000E+00 -0.10000000000E+04  0.10000000000E+04  0.00000000000E+00 0.  1.
    9000005    2    1    2  501    0 -0.19525850532E+02 -0.31936898325E+02 -0.90281663075E+03  0.90359997793E+03  0.37184726203E+01 0.  0.
         13    1    3    3    0    0 -0.12346067881E+02 -0.16709103008E+02 -0.50682733946E+03  0.50725296602E+03  0.00000000000E+00 0.  1.
          3    1    3    3  501    0 -0.71797826506E+01 -0.15227795318E+02 -0.39598929129E+03  0.39634701191E+03  0.00000000000E+00 0.  1.
         -1    1    1    2    0  502  0.19525850532E+02  0.31936898325E+02 -0.93172520729E+02  0.10041087059E+03  0.00000000000E+00 0. -1.
<mgrwt>
<rscale>  1 0.30000000E+03</rscale>
<asrwt>0</asrwt>
<pdfrwt beam="1">  1       21 0.14584934E-01 0.30000000E+03</pdfrwt>
<pdfrwt beam="2">0</pdfrwt>
<totfact> 0.43372040E+03</totfact>
</mgrwt>
</event>
<event>
 6    1  0.1273846E-001  0.3000000E+03  0.7818608E-02  0.1093470E+00
         21   -1    0    0  501  502  0.00000000000E+00  0.00000000000E+00  0.48380746580E+01  0.48380746580E+01  0.00000000000E+00 0. -1.
         13   -1    0    0    0    0 -0.00000000000E+00 -0.00000000000E+00 -0.10000000000E+04  0.10000000000E+04  0.00000000000E+00 0.  1.
    9000005    2    1    2  501    0 -0.60316527150E+02 -0.17228495611E+02 -0.71429842367E+03  0.71705480364E+03  0.32324684360E+01 0.  0.
         13    1    3    3    0    0 -0.53010103404E+02 -0.16001160887E+02 -0.62248723749E+03  0.62494517284E+03  0.00000000000E+00 0.  1.
          3    1    3    3  501    0 -0.73064237454E+01 -0.12273347239E+01 -0.91811186176E+02  0.92109630797E+02  0.00000000000E+00 0.  1.
         -1    1    1    2    0  502  0.60316527150E+02  0.17228495611E+02 -0.28086350167E+03  0.28778327102E+03  0.00000000000E+00 0. -1.
<mgrwt>
<rscale>  1 0.30000000E+03</rscale>
<asrwt>0</asrwt>
<pdfrwt beam="1">  1       21 0.17593036E-01 0.30000000E+03</pdfrwt>
<pdfrwt beam="2">0</pdfrwt>
<totfact> 0.30583307E+03</totfact>
</mgrwt>
</event>
<event>
 6    1  0.1273846E-001  0.3000000E+03  0.7818608E-02  0.1093470E+00
         21   -1    0    0  501  502  0.00000000000E+00  0.00000000000E+00  0.20701882563E+01  0.20701882563E+01  0.00000000000E+00 0. -1.
         13   -1    0    0    0    0 -0.00000000000E+00 -0.00000000000E+00 -0.10000000000E+04  0.10000000000E+04  0.00000000000E+00 0.  1.
    9000005    2    1    2  501    0 -0.34870421472E+01  0.33565247389E+02 -0.83472690042E+03  0.83541492864E+03  0.32123830363E+01 0.  0.
         13    1    3    3    0    0  0.17855653102E+00  0.10462471124E+02 -0.23902367949E+03  0.23925261658E+03  0.00000000000E+00 0.  1.
          1    1    3    3  501    0 -0.36655986782E+01  0.23102776265E+02 -0.59570322093E+03  0.59616231205E+03  0.00000000000E+00 0.  1.
         -1    1    1    2    0  502  0.34870421472E+01 -0.33565247389E+02 -0.16320291132E+03  0.16665525962E+03  0.00000000000E+00 0. -1.
<mgrwt>
<rscale>  1 0.30000000E+03</rscale>
<asrwt>0</asrwt>
<pdfrwt beam="1">  1       21 0.75279732E-02 0.30000000E+03</pdfrwt>
<pdfrwt beam="2">0</pdfrwt>
<totfact> 0.14211520E+04</totfact>
</mgrwt>
</event>
<event>
 6    1  0.1273846E-001  0.3000000E+03  0.7818608E-02  0.1093470E+00
         21   -1    0    0  501  502  0.00000000000E+00  0.00000000000E+00  0.15834037248E+01  0.15834037248E+01  0.00000000000E+00 0. -1.
         13   -1    0    0    0    0 -0.00000000000E+00 -0.00000000000E+00 -0.10000000000E+04  0.10000000000E+04  0.00000000000E+00 0.  1.
    9000005    2    1    2  501    0  0.15739889371E+02  0.35924837133E+02 -0.56133667130E+03  0.56274721691E+03  0.68726672396E+01 0.  0.
         13    1    3    3    0    0  0.26141100558E+01  0.11631822116E+02 -0.13997856705E+03  0.14048534476E+03  0.00000000000E+00 0.  1.
          1    1    3    3  501    0  0.13125779315E+02  0.24293015017E+02 -0.42135810425E+03  0.42226187216E+03  0.00000000000E+00 0.  1.
         -3    1    1    2    0  502 -0.15739889371E+02 -0.35924837133E+02 -0.43707992497E+03  0.43883618681E+03  0.00000000000E+00 0. -1.
<mgrwt>
<rscale>  1 0.30000000E+03</rscale>
<asrwt>0</asrwt>
<pdfrwt beam="1">  1       21 0.57578439E-02 0.30000000E+03</pdfrwt>
<pdfrwt beam="2">0</pdfrwt>
<totfact> 0.22621898E+04</totfact>
</mgrwt>
</event>
<event>
 6    1  0.1273846E-001  0.3000000E+03  0.7818608E-02  0.1093470E+00
         21   -1    0    0  501  502  0.00000000000E+00  0.00000000000E+00  0.23990090461E+01  0.23990090461E+01  0.00000000000E+00 0. -1.
         13   -1    0    0    0    0 -0.00000000000E+00 -0.00000000000E+00 -0.10000000000E+04  0.10000000000E+04  0.00000000000E+00 0.  1.
    9000005    2    1    2  501    0 -0.27668341198E+02  0.35269024782E+02 -0.69872640681E+03  0.70018144129E+03  0.51007782303E+01 0.  0.
         13    1    3    3    0    0 -0.46106629565E+01  0.86545936168E+01 -0.17195227168E+03  0.17223165777E+03  0.00000000000E+00 0.  1.
          3    1    3    3  501    0 -0.23057678242E+02  0.26614431165E+02 -0.52677413513E+03  0.52794978351E+03  0.00000000000E+00 0.  1.
         -3    1    1    2    0  502  0.27668341198E+02 -0.35269024782E+02 -0.29887458414E+03  0.30221756776E+03  0.00000000000E+00 0. -1.
<mgrwt>
<rscale>  1 0.30000000E+03</rscale>
<asrwt>0</asrwt>
<pdfrwt beam="1">  1       21 0.87236877E-02 0.30000000E+03</pdfrwt>
<pdfrwt beam="2">0</pdfrwt>
<totfact> 0.10966729E+04</totfact>
</mgrwt>
</event>
<event>
 6    1  0.1273846E-001  0.3000000E+03  0.7818608E-02  0.1093470E+00
         21   -1    0    0  501  502  0.00000000000E+00  0.00000000000E+00  0.28640562647E+01  0.28640562647E+01  0.00000000000E+00 0. -1.
         13   -1    0    0    0    0 -0.00000000000E+00 -0.00000000000E+00 -0.10000000000E+04  0.10000000000E+04  0.00000000000E+00 0.  1.
    9000005    2    1    2  501    0  0.33414762833E+02  0.37607075233E+02 -0.66904763860E+03  0.67094121214E+03  0.25551817942E+01 0.  0.
         13    1    3    3    0    0  0.94193032583E+01  0.12286486893E+02 -0.21060377347E+03  0.21117203989E+03  0.00000000000E+00 0.  1.
          3    1    3    3  501    0  0.23995459574E+02  0.25320588341E+02 -0.45844386513E+03  0.45976917225E+03  0.00000000000E+00 0.  1.
         -1    1    1    2    0  502 -0.33414762833E+02 -0.37607075233E+02 -0.32808830514E+03  0.33192284413E+03  0.00000000000E+00 0. -1.
<mgrwt>
<rscale>  1 0.30000000E+03</rscale>
<asrwt>0</asrwt>
<pdfrwt beam="1">  1       21 0.10414772E-01 0.30000000E+03</pdfrwt>
<pdfrwt beam="2">0</pdfrwt>
<totfact> 0.79998598E+03</totfact>
</mgrwt>
</event>
<event>
 6    1  0.1273846E-001  0.3000000E+03  0.7818608E-02  0.1093470E+00
         21   -1    0    0  501  502  0.00000000000E+00  0.00000000000E+00  0.39055003579E+01  0.39055003579E+01  0.00000000000E+00 0. -1.
         13   -1    0    0    0    0 -0.00000000000E+00 -0.00000000000E+00 -0.10000000000E+04  0.10000000000E+04  0.00000000000E+00 0.  1.
    9000005    2    1    2  501    0 -0.25391577335E+01  0.42896130208E+02 -0.86235289657E+03  0.86343008720E+03  0.35315656599E+01 0.  0.
         13    1    3    3    0    0  0.87523054433E-02  0.21786654564E+02 -0.46041937178E+03  0.46093454666E+03  0.00000000000E+00 0.  1.
          1    1    3    3  501    0 -0.25479100389E+01  0.21109475644E+02 -0.40193352479E+03  0.40249554054E+03  0.00000000000E+00 0.  1.
         -1    1    1    2    0  502  0.25391577335E+01 -0.42896130208E+02 -0.13374160307E+03  0.14047541316E+03  0.00000000000E+00 0. -1.
<mgrwt>
<rscale>  1 0.30000000E+03</rscale>
<asrwt>0</asrwt>
<pdfrwt beam="1">  1       21 0.14201849E-01 0.30000000E+03</pdfrwt>
<pdfrwt beam="2">0</pdfrwt>
<totfact> 0.45551957E+03</totfact>
</mgrwt>
</event>
<event>
 6    1  0.1273846E-001  0.3000000E+03  0.7818608E-02  0.1093470E+00
         21   -1    0    0  501  502  0.00000000000E+00  0.00000000000E+00  0.11359108976E+01  0.11359108976E+01  0.00000000000E+00 0. -1.
         13   -1    0    0    0    0 -0.00000000000E+00 -0.00000000000E+00 -0.10000000000E+04  0.10000000000E+04  0.00000000000E+00 0.  1.
    9000005    2    1    2  501    0 -0.58109072356E+01 -0.32884034915E+02 -0.44211653579E+03  0.44338779166E+03  0.32521036177E+01 0.  0.
         13    1    3    3    0    0 -0.32675060887E+01 -0.13842568974E+02 -0.16994756166E+03  0.17054168706E+03  0.00000000000E+00 0.  1.
          1    1    3    3  501    0 -0.25434011469E+01 -0.19041465941E+02 -0.27216897413E+03  0.27284610460E+03  0.00000000000E+00 0.  1.
         -3    1    1    2    0  502  0.58109072356E+01  0.32884034915E+02 -0.55674755331E+03  0.55774811924E+03  0.00000000000E+00 0. -1.
<mgrwt>
<rscale>  1 0.30000000E+03</rscale>
<asrwt>0</asrwt>
<pdfrwt beam="1">  1       21 0.41305938E-02 0.30000000E+03</pdfrwt>
<pdfrwt beam="2">0</pdfrwt>
<totfact> 0.39831069E+04</totfact>
</mgrwt>
</event>
<event>
 6    1  0.1273846E-001  0.3000000E+03  0.7818608E-02  0.1093470E+00
         21   -1    0    0  501  502  0.00000000000E+00  0.00000000000E+00  0.35268104559E+01  0.35268104559E+01  0.00000000000E+00 0. -1.
         13   -1    0    0    0    0 -0.00000000000E+00 -0.00000000000E+00 -0.10000000000E+04  0.10000000000E+04  0.00000000000E+00 0.  1.
    9000005    2    1    2  501    0  0.34614793725E+02 -0.29329019145E+02 -0.82174937553E+03  0.82300870473E+03  0.35939644851E+01 0.  0.
         13    1    3    3    0    0  0.10552825551E+02 -0.77790715014E+01 -0.26271021189E+03  0.26303712953E+03  0.00000000000E+00 0.  1.
          3    1    3    3  501    0  0.24061968174E+02 -0.21549947643E+02 -0.55903916364E+03  0.55997157520E+03  0.00000000000E+00 0.  1.
         -1    1    1    2    0  502 -0.34614793725E+02  0.29329019145E+02 -0.17472381402E+03  0.18051810572E+03  0.00000000000E+00 0. -1.
<mgrwt>
<rscale>  1 0.30000000E+03</rscale>
<asrwt>0</asrwt>
<pdfrwt beam="1">  1       21 0.12824792E-01 0.30000000E+03</pdfrwt>
<pdfrwt beam="2">0</pdfrwt>
<totfact> 0.54908479E+03</totfact>
</mgrwt>
</event>
<event>
 6    1  0.1273846E-001  0.3000000E+03  0.7818608E-02  0.1093470E+00
         21   -1    0    0  501  502  0.00000000000E+00  0.00000000000E+00  0.19668949108E+01  0.19668949108E+01  0.00000000000E+00 0. -1.
         13   -1    0    0    0    0 -0.00000000000E+00 -0.00000000000E+00 -0.10000000000E+04  0.10000000000E+04  0.00000000000E+00 0.  1.
    9000005    2    1    2  501    0 -0.97133672408E+01 -0.35227275509E+02 -0.78234772145E+03  0.78320790616E+03  0.33699515322E+01 0.  0.
         13    1    3    3    0    0  0.27251402601E+00 -0.13957120070E+01 -0.30997848333E+02  0.31030450806E+02  0.00000000000E+00 0.  1.
          3    1    3    3  501    0 -0.99858812668E+01 -0.33831563501E+02 -0.75134987312E+03  0.75217745536E+03  0.00000000000E+00 0.  1.
         -1    1    1    2    0  502  0.97133672408E+01  0.35227275509E+02 -0.21568538364E+03  0.21875898875E+03  0.00000000000E+00 0. -1.
<mgrwt>
<rscale>  1 0.30000000E+03</rscale>
<asrwt>0</asrwt>
<pdfrwt beam="1">  1       21 0.71523602E-02 0.30000000E+03</pdfrwt>
<pdfrwt beam="2">0</pdfrwt>
<totfact> 0.15541311E+04</totfact>
</mgrwt>
</event>
<event>
 6    1  0.1273846E-001  0.3000000E+03  0.7818608E-02  0.1093470E+00
         21   -1    0    0  501  502  0.00000000000E+00  0.00000000000E+00  0.11213161363E+01  0.11213161363E+01  0.00000000000E+00 0. -1.
         13   -1    0    0    0    0 -0.00000000000E+00 -0.00000000000E+00 -0.10000000000E+04  0.10000000000E+04  0.00000000000E+00 0.  1.
    9000005    2    1    2  501    0  0.92597137213E+01  0.29330523392E+02 -0.69573546559E+03  0.69642173838E+03  0.30623039369E+01 0.  0.
         13    1    3    3    0    0  0.53499873124E+01  0.12372930190E+02 -0.31820065110E+03  0.31848605326E+03  0.00000000000E+00 0.  1.
          3    1    3    3  501    0  0.39097264089E+01  0.16957593202E+02 -0.37753481449E+03  0.37793568511E+03  0.00000000000E+00 0.  1.
         -3    1    1    2    0  502 -0.92597137213E+01 -0.29330523392E+02 -0.30314321827E+03  0.30469957776E+03  0.00000000000E+00 0. -1.
<mgrwt>
<rscale>  1 0.30000000E+03</rscale>
<asrwt>0</asrwt>
<pdfrwt beam="1">  1       21 0.40775218E-02 0.30000000E+03</pdfrwt>
<pdfrwt beam="2">0</pdfrwt>
<totfact> 0.40709219E+04</totfact>
</mgrwt>
</event>
<event>
 6    1  0.1273846E-001  0.3000000E+03  0.7818608E-02  0.1093470E+00
         21   -1    0    0  501  502  0.00000000000E+00  0.00000000000E+00  0.30825616368E+01  0.30825616368E+01  0.00000000000E+00 0. -1.
         13   -1    0    0    0    0 -0.00000000000E+00 -0.00000000000E+00 -0.10000000000E+04  0.10000000000E+04  0.00000000000E+00 0.  1.
    9000005    2    1    2  501    0  0.30312076596E+02  0.12937736112E+02 -0.90197910997E+03  0.90258632688E+03  0.30912190957E+01 0.  0.
         13    1    3    3    0    0  0.60503250089E+01  0.38369921500E+01 -0.21033142246E+03  0.21045340628E+03  0.00000000000E+00 0.  1.
          1    1    3    3  501    0  0.24261751587E+02  0.91007439620E+01 -0.69164768751E+03  0.69213292059E+03  0.00000000000E+00 0.  1.
         -3    1    1    2    0  502 -0.30312076596E+02 -0.12937736112E+02 -0.94938328392E+02  0.10049623476E+03  0.00000000000E+00 0. -1.
<mgrwt>
<rscale>  1 0.30000000E+03</rscale>
<asrwt>0</asrwt>
<pdfrwt beam="1">  1       21 0.11209339E-01 0.30000000E+03</pdfrwt>
<pdfrwt beam="2">0</pdfrwt>
<totfact> 0.70099826E+03</totfact>
</mgrwt>
</event>
<event>
 6    1  0.1273846E-001  0.3000000E+03  0.7818608E-02  0.1093470E+00
         21   -1    0    0  501  502  0.00000000000E+00  0.00000000000E+00  0.12455568788E+01  0.12455568788E+01  0.00000000000E+00 0. -1.
         13   -1    0    0    0    0 -0.00000000000E+00 -0.00000000000E+00 -0.10000000000E+04  0.10000000000E+04  0.00000000000E+00 0.  1.
    9000005    2    1    2  501    0  0.32878495281E+02 -0.11137490967E+02 -0.58903529500E+03  0.59005847112E+03  0.11753419786E+01 0.  0.
         13    1    3    3    0    0  0.25879106489E+02 -0.83538432209E+01 -0.46606120106E+03  0.46685389361E+03  0.00000000000E+00 0.  1.
          3    1    3    3  501    0  0.69993887918E+01 -0.27836477461E+01 -0.12297409394E+03  0.12320457750E+03  0.00000000000E+00 0.  1.
         -3    1    1    2    0  502 -0.32878495281E+02  0.11137490967E+02 -0.40971914813E+03  0.41118708576E+03  0.00000000000E+00 0. -1.
<mgrwt>
<rscale>  1 0.30000000E+03</rscale>
<asrwt>0</asrwt>
<pdfrwt beam="1">  1       21 0.45293073E-02 0.30000000E+03</pdfrwt>
<pdfrwt beam="2">0</pdfrwt>
<totfact> 0.34080594E+04</totfact>
</mgrwt>
</event>
<event>
 6    1  0.1273846E-001  0.3000000E+03  0.7818608E-02  0.1093470E+00
         21   -1    0    0  501  502  0.00000000000E+00  0.00000000000E+00  0.18021798002E+01  0.18021798002E+01  0.00000000000E+00 0. -1.
         13   -1    0    0    0    0 -0.00000000000E+00 -0.00000000000E+00 -0.10000000000E+04  0.10000000000E+04  0.00000000000E+00 0.  1.
    9000005    2    1    2  501    0 -0.20155382368E+02  0.32789927722E+02 -0.29020548192E+03  0.29276440234E+03  0.32178788791E+01 0.  0.
         13    1    3    3    0    0 -0.13602579106E+02  0.20698913230E+02 -0.19659432453E+03  0.19814843831E+03  0.00000000000E+00 0.  1.
          1    1    3    3  501    0 -0.65528032623E+01  0.12091014493E+02 -0.93611157388E+02  0.94615964031E+02  0.00000000000E+00 0.  1.
         -3    1    1    2    0  502  0.20155382368E+02 -0.32789927722E+02 -0.70799233828E+03  0.70903777746E+03  0.00000000000E+00 0. -1.
<mgrwt>
<rscale>  1 0.30000000E+03</rscale>
<asrwt>0</asrwt>
<pdfrwt beam="1">  1       21 0.65533949E-02 0.30000000E+03</pdfrwt>
<pdfrwt beam="2">0</pdfrwt>
<totfact> 0.18091894E+04</totfact>
</mgrwt>
</event>
<event>
 6    1  0.1273846E-001  0.3000000E+03  0.7818608E-02  0.1093470E+00
         21   -1    0    0  501  502  0.00000000000E+00  0.00000000000E+00  0.18946577853E+01  0.18946577853E+01  0.00000000000E+00 0. -1.
         13   -1    0    0    0    0 -0.00000000000E+00 -0.00000000000E+00 -0.10000000000E+04  0.10000000000E+04  0.00000000000E+00 0.  1.
    9000005    2    1    2  501    0 -0.16785519467E+02  0.31742346470E+02 -0.78124182998E+03  0.78207856838E+03  0.43312796936E+01 0.  0.
         13    1    3    3    0    0 -0.75842332443E+01  0.99406422492E+01 -0.27131659635E+03  0.27160455154E+03  0.00000000000E+00 0.  1.
          3    1    3    3  501    0 -0.92012862227E+01  0.21801704221E+02 -0.50992523364E+03  0.51047401684E+03  0.00000000000E+00 0.  1.
         -3    1    1    2    0  502  0.16785519467E+02 -0.31742346470E+02 -0.21686351223E+03  0.21981608941E+03  0.00000000000E+00 0. -1.
<mgrwt>
<rscale>  1 0.30000000E+03</rscale>
<asrwt>0</asrwt>
<pdfrwt beam="1">  1       21 0.68896792E-02 0.30000000E+03</pdfrwt>
<pdfrwt beam="2">0</pdfrwt>
<totfact> 0.16587302E+04</totfact>
</mgrwt>
</event>
<event>
 6    1  0.1273846E-001  0.3000000E+03  0.7818608E-02  0.1093470E+00
         21   -1    0    0  501  502  0.00000000000E+00  0.00000000000E+00  0.26147520358E+02  0.26147520358E+02  0.00000000000E+00 0. -1.
         13   -1    0    0    0    0 -0.00000000000E+00 -0.00000000000E+00 -0.10000000000E+04  0.10000000000E+04  0.00000000000E+00 0.  1.
    9000005    2    1    2  501    0  0.12892617034E+03  0.75629783897E+01 -0.79561621070E+03  0.80603999298E+03  0.40198908847E+01 0.  0.
         13    1    3    3    0    0  0.34867312045E+02  0.57437099398E+00 -0.20849188831E+03  0.21138809532E+03  0.00000000000E+00 0.  1.
          3    1    3    3  501    0  0.94058858293E+02  0.69886073958E+01 -0.58712432239E+03  0.59465189766E+03  0.00000000000E+00 0.  1.
         -1    1    1    2    0  502 -0.12892617034E+03 -0.75629783897E+01 -0.17823626895E+03  0.22010752738E+03  0.00000000000E+00 0. -1.
<mgrwt>
<rscale>  1 0.30000000E+03</rscale>
<asrwt>0</asrwt>
<pdfrwt beam="1">  1       21 0.95082093E-01 0.30000000E+03</pdfrwt>
<pdfrwt beam="2">0</pdfrwt>
<totfact> 0.83790618E+01</totfact>
</mgrwt>
</event>
<event>
 6    1  0.1273846E-001  0.3000000E+03  0.7818608E-02  0.1093470E+00
         21   -1    0    0  501  502  0.00000000000E+00  0.00000000000E+00  0.11230092115E+01  0.11230092115E+01  0.00000000000E+00 0. -1.
         13   -1    0    0    0    0 -0.00000000000E+00 -0.00000000000E+00 -0.10000000000E+04  0.10000000000E+04  0.00000000000E+00 0.  1.
    9000005    2    1    2  501    0  0.59056901141E+01 -0.30208319306E+02 -0.30825040062E+03  0.30981084616E+03  0.41268858574E+01 0.  0.
         13    1    3    3    0    0  0.14653908722E+01 -0.96533290266E+01 -0.11742184963E+03  0.11782709748E+03  0.00000000000E+00 0.  1.
          1    1    3    3  501    0  0.44402992419E+01 -0.20554990279E+02 -0.19082855099E+03  0.19198374868E+03  0.00000000000E+00 0.  1.
         -1    1    1    2    0  502 -0.59056901141E+01  0.30208319306E+02 -0.69062659017E+03  0.69131216305E+03  0.00000000000E+00 0. -1.
<mgrwt>
<rscale>  1 0.30000000E+03</rscale>
<asrwt>0</asrwt>
<pdfrwt beam="1">  1       21 0.40836785E-02 0.30000000E+03</pdfrwt>
<pdfrwt beam="2">0</pdfrwt>
<totfact> 0.40605808E+04</totfact>
</mgrwt>
</event>
<event>
 6    1  0.1273846E-001  0.3000000E+03  0.7818608E-02  0.1093470E+00
         21   -1    0    0  501  502  0.00000000000E+00  0.00000000000E+00  0.11057416423E+01  0.11057416423E+01  0.00000000000E+00 0. -1.
         13   -1    0    0    0    0 -0.00000000000E+00 -0.00000000000E+00 -0.10000000000E+04  0.10000000000E+04  0.00000000000E+00 0.  1.
    9000005    2    1    2  501    0  0.30165395767E+02  0.66100982149E+00 -0.70799921086E+03  0.70865007543E+03  0.34144992958E+01 0.  0.
         13    1    3    3    0    0  0.28251496466E+02  0.31145533642E+00 -0.64051248759E+03  0.64113531397E+03  0.00000000000E+00 0.  1.
          3    1    3    3  501    0  0.19138993010E+01  0.34955448507E+00 -0.67486723261E+02  0.67514761463E+02  0.00000000000E+00 0.  1.
         -3    1    1    2    0  502 -0.30165395767E+02 -0.66100982149E+00 -0.29089504750E+03  0.29245566621E+03  0.00000000000E+00 0. -1.
<mgrwt>
<rscale>  1 0.30000000E+03</rscale>
<asrwt>0</asrwt>
<pdfrwt beam="1">  1       21 0.40208872E-02 0.30000000E+03</pdfrwt>
<pdfrwt beam="2">0</pdfrwt>
<totfact> 0.41680100E+04</totfact>
</mgrwt>
</event>
<event>
 6    1  0.1273846E-001  0.3000000E+03  0.7818608E-02  0.1093470E+00
         21   -1    0    0  501  502  0.00000000000E+00  0.00000000000E+00  0.22941553982E+01  0.22941553982E+01  0.00000000000E+00 0. -1.
         13   -1    0    0    0    0 -0.00000000000E+00 -0.00000000000E+00 -0.10000000000E+04  0.10000000000E+04  0.00000000000E+00 0.  1.
    9000005    2    1    2  501    0 -0.24227249338E+02 -0.38070016740E+02 -0.66599078732E+03  0.66752383859E+03  0.28391041728E+01 0.  0.
         13    1    3    3    0    0 -0.77228311210E+01 -0.14573607464E+02 -0.23721921483E+03  0.23779190071E+03  0.00000000000E+00 0.  1.
          3    1    3    3  501    0 -0.16504418217E+02 -0.23496409276E+02 -0.42877157248E+03  0.42973193788E+03  0.00000000000E+00 0.  1.
         -1    1    1    2    0  502  0.24227249338E+02  0.38070016740E+02 -0.33171505729E+03  0.33477031681E+03  0.00000000000E+00 0. -1.
<mgrwt>
<rscale>  1 0.30000000E+03</rscale>
<asrwt>0</asrwt>
<pdfrwt beam="1">  1       21 0.83424009E-02 0.30000000E+03</pdfrwt>
<pdfrwt beam="2">0</pdfrwt>
<totfact> 0.11866223E+04</totfact>
</mgrwt>
</event>
<event>
 6    1  0.1273846E-001  0.3000000E+03  0.7818608E-02  0.1093470E+00
         21   -1    0    0  501  502  0.00000000000E+00  0.00000000000E+00  0.22249422731E+01  0.22249422731E+01  0.00000000000E+00 0. -1.
         13   -1    0    0    0    0 -0.00000000000E+00 -0.00000000000E+00 -0.10000000000E+04  0.10000000000E+04  0.00000000000E+00 0.  1.
    9000005    2    1    2  501    0  0.84617207089E+01 -0.36805429420E+02 -0.79872759270E+03  0.79962648797E+03  0.32423096437E+01 0.  0.
         13    1    3    3    0    0  0.60044575075E+01 -0.19484238219E+02 -0.44324478606E+03  0.44371345418E+03  0.00000000000E+00 0.  1.
          3    1    3    3  501    0  0.24572632014E+01 -0.17321191201E+02 -0.35548280664E+03  0.35591303379E+03  0.00000000000E+00 0.  1.
         -3    1    1    2    0  502 -0.84617207089E+01  0.36805429420E+02 -0.19904746503E+03  0.20259845430E+03  0.00000000000E+00 0. -1.
<mgrwt>
<rscale>  1 0.30000000E+03</rscale>
<asrwt>0</asrwt>
<pdfrwt beam="1">  1       21 0.80907162E-02 0.30000000E+03</pdfrwt>
<pdfrwt beam="2">0</pdfrwt>
<totfact> 0.12523286E+04</totfact>
</mgrwt>
</event>
<event>
 6    1  0.1273846E-001  0.3000000E+03  0.7818608E-02  0.1093470E+00
         21   -1    0    0  501  502  0.00000000000E+00  0.00000000000E+00  0.14741208141E+02  0.14741208141E+02  0.00000000000E+00 0. -1.
         13   -1    0    0    0    0 -0.00000000000E+00 -0.00000000000E+00 -0.10000000000E+04  0.10000000000E+04  0.00000000000E+00 0.  1.
    9000005    2    1    2  501    0 -0.52289232243E+01  0.48575583718E+02 -0.95709496158E+03  0.95834856405E+03  0.37783280281E+01 0.  0.
         13    1    3    3    0    0 -0.42839901634E+01  0.45906440865E+02 -0.91215170360E+03  0.91331620169E+03  0.00000000000E+00 0.  1.
          3    1    3    3  501    0 -0.94493306091E+00  0.26691428526E+01 -0.44943257981E+02  0.45032362363E+02  0.00000000000E+00 0.  1.
         -1    1    1    2    0  502  0.52289232243E+01 -0.48575583718E+02 -0.28163830277E+02  0.56392644090E+02  0.00000000000E+00 0. -1.
<mgrwt>
<rscale>  1 0.30000000E+03</rscale>
<asrwt>0</asrwt>
<pdfrwt beam="1">  1       21 0.53604506E-01 0.30000000E+03</pdfrwt>
<pdfrwt beam="2">0</pdfrwt>
<totfact> 0.32270586E+02</totfact>
</mgrwt>
</event>
<event>
 6    1  0.1273846E-001  0.3000000E+03  0.7818608E-02  0.1093470E+00
         21   -1    0    0  501  502  0.00000000000E+00  0.00000000000E+00  0.10110438853E+02  0.10110438853E+02  0.00000000000E+00 0. -1.
         13   -1    0    0    0    0 -0.00000000000E+00 -0.00000000000E+00 -0.10000000000E+04  0.10000000000E+04  0.00000000000E+00 0.  1.
    9000005    2    1    2  501    0 -0.52877533314E+02 -0.10068548872E+02 -0.92151030418E+03  0.92308669503E+03  0.32243796581E+01 0.  0.
         13    1    3    3    0    0 -0.42160624546E+02 -0.89580599891E+01 -0.72115153593E+03  0.72243844228E+03  0.00000000000E+00 0.  1.
          3    1    3    3  501    0 -0.10716908768E+02 -0.11104888832E+01 -0.20035876825E+03  0.20064825275E+03  0.00000000000E+00 0.  1.
         -1    1    1    2    0  502  0.52877533314E+02  0.10068548872E+02 -0.68379256966E+02  0.87023743823E+02  0.00000000000E+00 0. -1.
<mgrwt>
<rscale>  1 0.30000000E+03</rscale>
<asrwt>0</asrwt>
<pdfrwt beam="1">  1       21 0.36765310E-01 0.30000000E+03</pdfrwt>
<pdfrwt beam="2">0</pdfrwt>
<totfact> 0.71936790E+02</totfact>
</mgrwt>
</event>
<event>
 6    1  0.1273846E-001  0.3000000E+03  0.7818608E-02  0.1093470E+00
         21   -1    0    0  501  502  0.00000000000E+00  0.00000000000E+00  0.25473015098E+01  0.25473015098E+01  0.00000000000E+00 0. -1.
         13   -1    0    0    0    0 -0.00000000000E+00 -0.00000000000E+00 -0.10000000000E+04  0.10000000000E+04  0.00000000000E+00 0.  1.
    9000005    2    1    2  501    0  0.37689437540E+02  0.27981191913E+01 -0.83075530832E+03  0.83161941302E+03  0.28535313767E+01 0.  0.
         13    1    3    3    0    0  0.35466319812E+02  0.25672243201E+01 -0.76472755748E+03  0.76555384373E+03  0.00000000000E+00 0.  1.
          1    1    3    3  501    0  0.22231177281E+01  0.23089487125E+00 -0.66027750838E+02  0.66065569290E+02  0.00000000000E+00 0.  1.
         -3    1    1    2    0  502 -0.37689437540E+02 -0.27981191913E+01 -0.16669739017E+03  0.17092788849E+03  0.00000000000E+00 0. -1.
<mgrwt>
<rscale>  1 0.30000000E+03</rscale>
<asrwt>0</asrwt>
<pdfrwt beam="1">  1       21 0.92629341E-02 0.30000000E+03</pdfrwt>
<pdfrwt beam="2">0</pdfrwt>
<totfact> 0.98612214E+03</totfact>
</mgrwt>
</event>
<event>
 6    1  0.1273846E-001  0.3000000E+03  0.7818608E-02  0.1093470E+00
         21   -1    0    0  501  502  0.00000000000E+00  0.00000000000E+00  0.18021207413E+01  0.18021207413E+01  0.00000000000E+00 0. -1.
         13   -1    0    0    0    0 -0.00000000000E+00 -0.00000000000E+00 -0.10000000000E+04  0.10000000000E+04  0.00000000000E+00 0.  1.
    9000005    2    1    2  501    0 -0.16841115493E+02  0.33205647341E+02 -0.26130244535E+03  0.26396669282E+03  0.36343890658E+01 0.  0.
         13    1    3    3    0    0 -0.61124836826E+00  0.27666254813E+01 -0.15705612705E+02  0.15959138810E+02  0.00000000000E+00 0.  1.
          3    1    3    3  501    0 -0.16229867125E+02  0.30439021860E+02 -0.24559683265E+03  0.24800755401E+03  0.00000000000E+00 0.  1.
         -1    1    1    2    0  502  0.16841115493E+02 -0.33205647341E+02 -0.73689543390E+03  0.73783542792E+03  0.00000000000E+00 0. -1.
<mgrwt>
<rscale>  1 0.30000000E+03</rscale>
<asrwt>0</asrwt>
<pdfrwt beam="1">  1       21 0.65531802E-02 0.30000000E+03</pdfrwt>
<pdfrwt beam="2">0</pdfrwt>
<totfact> 0.18092921E+04</totfact>
</mgrwt>
</event>
<event>
 6    1  0.1273846E-001  0.3000000E+03  0.7818608E-02  0.1093470E+00
         21   -1    0    0  501  502  0.00000000000E+00  0.00000000000E+00  0.17712788871E+01  0.17712788871E+01  0.00000000000E+00 0. -1.
         13   -1    0    0    0    0 -0.00000000000E+00 -0.00000000000E+00 -0.10000000000E+04  0.10000000000E+04  0.00000000000E+00 0.  1.
    9000005    2    1    2  501    0  0.34159777659E+02  0.16118981887E+02 -0.71963280675E+03  0.72062648437E+03  0.21074704204E+01 0.  0.
         13    1    3    3    0    0  0.28524008088E+02  0.12861694014E+02 -0.60643221844E+03  0.60723889678E+03  0.00000000000E+00 0.  1.
          1    1    3    3  501    0  0.56357695702E+01  0.32572878729E+01 -0.11320058832E+03  0.11338758758E+03  0.00000000000E+00 0.  1.
         -3    1    1    2    0  502 -0.34159777659E+02 -0.16118981887E+02 -0.27859591436E+03  0.28114479452E+03  0.00000000000E+00 0. -1.
<mgrwt>
<rscale>  1 0.30000000E+03</rscale>
<asrwt>0</asrwt>
<pdfrwt beam="1">  1       21 0.64410277E-02 0.30000000E+03</pdfrwt>
<pdfrwt beam="2">0</pdfrwt>
<totfact> 0.18641828E+04</totfact>
</mgrwt>
</event>
<event>
 6    1  0.1273846E-001  0.3000000E+03  0.7818608E-02  0.1093470E+00
         21   -1    0    0  501  502  0.00000000000E+00  0.00000000000E+00  0.31115621105E+01  0.31115621105E+01  0.00000000000E+00 0. -1.
         13   -1    0    0    0    0 -0.00000000000E+00 -0.00000000000E+00 -0.10000000000E+04  0.10000000000E+04  0.00000000000E+00 0.  1.
    9000005    2    1    2  501    0  0.51559095666E+02  0.12513795077E+02 -0.65224212383E+03  0.65440535739E+03  0.34129568249E+01 0.  0.
         13    1    3    3    0    0  0.97216552695E+01  0.31775457827E+01 -0.13955855893E+03  0.13993283657E+03  0.00000000000E+00 0.  1.
          1    1    3    3  501    0  0.41837440397E+02  0.93362492945E+01 -0.51268356489E+03  0.51447252082E+03  0.00000000000E+00 0.  1.
         -1    1    1    2    0  502 -0.51559095666E+02 -0.12513795077E+02 -0.34464631406E+03  0.34870620472E+03  0.00000000000E+00 0. -1.
<mgrwt>
<rscale>  1 0.30000000E+03</rscale>
<asrwt>0</asrwt>
<pdfrwt beam="1">  1       21 0.11314795E-01 0.30000000E+03</pdfrwt>
<pdfrwt beam="2">0</pdfrwt>
<totfact> 0.68926303E+03</totfact>
</mgrwt>
</event>
<event>
 6    1  0.1273846E-001  0.3000000E+03  0.7818608E-02  0.1093470E+00
         21   -1    0    0  501  502  0.00000000000E+00  0.00000000000E+00  0.22792604934E+01  0.22792604934E+01  0.00000000000E+00 0. -1.
         13   -1    0    0    0    0 -0.00000000000E+00 -0.00000000000E+00 -0.10000000000E+04  0.10000000000E+04  0.00000000000E+00 0.  1.
    9000005    2    1    2  501    0 -0.12658957234E+02 -0.45193406545E+02 -0.57967046250E+03  0.58160274903E+03  0.64202327559E+01 0.  0.
         13    1    3    3    0    0 -0.61692210667E+01 -0.11556245968E+02 -0.15441073916E+03  0.15496542349E+03  0.00000000000E+00 0.  1.
          1    1    3    3  501    0 -0.64897361668E+01 -0.33637160577E+02 -0.42525972334E+03  0.42663732553E+03  0.00000000000E+00 0.  1.
         -3    1    1    2    0  502  0.12658957234E+02  0.45193406545E+02 -0.41805027701E+03  0.42067651146E+03  0.00000000000E+00 0. -1.
<mgrwt>
<rscale>  1 0.30000000E+03</rscale>
<asrwt>0</asrwt>
<pdfrwt beam="1">  1       21 0.82882375E-02 0.30000000E+03</pdfrwt>
<pdfrwt beam="2">0</pdfrwt>
<totfact> 0.12003093E+04</totfact>
</mgrwt>
</event>
<event>
 6    1  0.1273846E-001  0.3000000E+03  0.7818608E-02  0.1093470E+00
         21   -1    0    0  501  502  0.00000000000E+00  0.00000000000E+00  0.24342515071E+01  0.24342515071E+01  0.00000000000E+00 0. -1.
         13   -1    0    0    0    0 -0.00000000000E+00 -0.00000000000E+00 -0.10000000000E+04  0.10000000000E+04  0.00000000000E+00 0.  1.
    9000005    2    1    2  501    0 -0.13078129932E+02 -0.38962488985E+02 -0.77558831629E+03  0.77668418299E+03  0.34598703270E+01 0.  0.
         13    1    3    3    0    0 -0.65990053731E+01 -0.17417275380E+02 -0.38100422026E+03  0.38145920386E+03  0.00000000000E+00 0.  1.
          1    1    3    3  501    0 -0.64791245592E+01 -0.21545213605E+02 -0.39458409603E+03  0.39522497913E+03  0.00000000000E+00 0.  1.
         -3    1    1    2    0  502  0.13078129932E+02  0.38962488985E+02 -0.22197743220E+03  0.22575006852E+03  0.00000000000E+00 0. -1.
<mgrwt>
<rscale>  1 0.30000000E+03</rscale>
<asrwt>0</asrwt>
<pdfrwt beam="1">  1       21 0.88518423E-02 0.30000000E+03</pdfrwt>
<pdfrwt beam="2">0</pdfrwt>
<totfact> 0.10687584E+04</totfact>
</mgrwt>
</event>
<event>
 6    1  0.1273846E-001  0.3000000E+03  0.7818608E-02  0.1093470E+00
         21   -1    0    0  501  502  0.00000000000E+00  0.00000000000E+00  0.19574561423E+01  0.19574561423E+01  0.00000000000E+00 0. -1.
         13   -1    0    0    0    0 -0.00000000000E+00 -0.00000000000E+00 -0.10000000000E+04  0.10000000000E+04  0.00000000000E+00 0.  1.
    9000005    2    1    2  501    0 -0.20543922175E+02 -0.27521065630E+02 -0.81452463111E+03  0.81525371732E+03  0.29643083393E+01 0.  0.
         13    1    3    3    0    0 -0.34691339745E+01 -0.42892817638E+01 -0.10746985722E+03  0.10761135181E+03  0.00000000000E+00 0.  1.
          1    1    3    3  501    0 -0.17074788201E+02 -0.23231783867E+02 -0.70705477389E+03  0.70764236551E+03  0.00000000000E+00 0.  1.
         -3    1    1    2    0  502  0.20543922175E+02  0.27521065630E+02 -0.18351791275E+03  0.18670373882E+03  0.00000000000E+00 0. -1.
<mgrwt>
<rscale>  1 0.30000000E+03</rscale>
<asrwt>0</asrwt>
<pdfrwt beam="1">  1       21 0.71180373E-02 0.30000000E+03</pdfrwt>
<pdfrwt beam="2">0</pdfrwt>
<totfact> 0.15672175E+04</totfact>
</mgrwt>
</event>
<event>
 6    1  0.1273846E-001  0.3000000E+03  0.7818608E-02  0.1093470E+00
         21   -1    0    0  501  502  0.00000000000E+00  0.00000000000E+00  0.28806347447E+01  0.28806347447E+01  0.00000000000E+00 0. -1.
         13   -1    0    0    0    0 -0.00000000000E+00 -0.00000000000E+00 -0.10000000000E+04  0.10000000000E+04  0.00000000000E+00 0.  1.
    9000005    2    1    2  501    0 -0.13410383384E+02  0.45697226036E+02 -0.26862145338E+03  0.27282770347E+03  0.30652434101E+01 0.  0.
         13    1    3    3    0    0  0.16230806717E+00  0.85428692385E+00 -0.51725686062E+01  0.52451516702E+01  0.00000000000E+00 0.  1.
          1    1    3    3  501    0 -0.13572691451E+02  0.44842939112E+02 -0.26344888477E+03  0.26758255180E+03  0.00000000000E+00 0.  1.
         -3    1    1    2    0  502  0.13410383384E+02 -0.45697226036E+02 -0.72849791188E+03  0.73005293127E+03  0.00000000000E+00 0. -1.
<mgrwt>
<rscale>  1 0.30000000E+03</rscale>
<asrwt>0</asrwt>
<pdfrwt beam="1">  1       21 0.10475058E-01 0.30000000E+03</pdfrwt>
<pdfrwt beam="2">0</pdfrwt>
<totfact> 0.79175485E+03</totfact>
</mgrwt>
</event>
<event>
 6    1  0.1273846E-001  0.3000000E+03  0.7818608E-02  0.1093470E+00
         21   -1    0    0  501  502  0.00000000000E+00  0.00000000000E+00  0.19536390059E+01  0.19536390059E+01  0.00000000000E+00 0. -1.
         13   -1    0    0    0    0 -0.00000000000E+00 -0.00000000000E+00 -0.10000000000E+04  0.10000000000E+04  0.00000000000E+00 0.  1.
    9000005    2    1    2  501    0  0.37241715759E+02  0.15784731260E+02 -0.69973725147E+03  0.70091472465E+03  0.36231199206E+01 0.  0.
         13    1    3    3    0    0  0.14059548990E+02  0.74168468131E+01 -0.29449456398E+03  0.29492325908E+03  0.00000000000E+00 0.  1.
          1    1    3    3  501    0  0.23182166769E+02  0.83678844470E+01 -0.40524268750E+03  0.40599146557E+03  0.00000000000E+00 0.  1.
         -1    1    1    2    0  502 -0.37241715759E+02 -0.15784731260E+02 -0.29830910952E+03  0.30103891436E+03  0.00000000000E+00 0. -1.
<mgrwt>
<rscale>  1 0.30000000E+03</rscale>
<asrwt>0</asrwt>
<pdfrwt beam="1">  1       21 0.71041568E-02 0.30000000E+03</pdfrwt>
<pdfrwt beam="2">0</pdfrwt>
<totfact> 0.15725575E+04</totfact>
</mgrwt>
</event>
<event>
 6    1  0.1273846E-001  0.3000000E+03  0.7818608E-02  0.1093470E+00
         21   -1    0    0  501  502  0.00000000000E+00  0.00000000000E+00  0.12006283602E+01  0.12006283602E+01  0.00000000000E+00 0. -1.
         13   -1    0    0    0    0 -0.00000000000E+00 -0.00000000000E+00 -0.10000000000E+04  0.10000000000E+04  0.00000000000E+00 0.  1.
    9000005    2    1    2  501    0 -0.13882746171E+02  0.27011361736E+02 -0.28838834530E+03  0.29014073591E+03  0.95637140390E+01 0.  0.
         13    1    3    3    0    0 -0.39553597886E+01  0.15872094255E+02 -0.17768980486E+03  0.17844112474E+03  0.00000000000E+00 0.  1.
          3    1    3    3  501    0 -0.99273863824E+01  0.11139267481E+02 -0.11069854043E+03  0.11169961117E+03  0.00000000000E+00 0.  1.
         -3    1    1    2    0  502  0.13882746171E+02 -0.27011361736E+02 -0.71041102634E+03  0.71105989245E+03  0.00000000000E+00 0. -1.
<mgrwt>
<rscale>  1 0.30000000E+03</rscale>
<asrwt>0</asrwt>
<pdfrwt beam="1">  1       21 0.43659305E-02 0.30000000E+03</pdfrwt>
<pdfrwt beam="2">0</pdfrwt>
<totfact> 0.36270736E+04</totfact>
</mgrwt>
</event>
<event>
 6    1  0.1273846E-001  0.3000000E+03  0.7818608E-02  0.1093470E+00
         21   -1    0    0  501  502  0.00000000000E+00  0.00000000000E+00  0.13330304328E+02  0.13330304328E+02  0.00000000000E+00 0. -1.
         13   -1    0    0    0    0 -0.00000000000E+00 -0.00000000000E+00 -0.10000000000E+04  0.10000000000E+04  0.00000000000E+00 0.  1.
    9000005    2    1    2  501    0  0.23475812453E+02 -0.73106316129E+02 -0.87167781760E+03  0.87505963047E+03  0.33899767410E+01 0.  0.
         13    1    3    3    0    0  0.47087167131E+01 -0.16793219806E+02 -0.21269682209E+03  0.21341068946E+03  0.00000000000E+00 0.  1.
          3    1    3    3  501    0  0.18767095740E+02 -0.56313096322E+02 -0.65898099551E+03  0.66164894101E+03  0.00000000000E+00 0.  1.
         -3    1    1    2    0  502 -0.23475812453E+02  0.73106316129E+02 -0.11499187807E+03  0.13827067386E+03  0.00000000000E+00 0. -1.
<mgrwt>
<rscale>  1 0.30000000E+03</rscale>
<asrwt>0</asrwt>
<pdfrwt beam="1">  1       21 0.48473936E-01 0.30000000E+03</pdfrwt>
<pdfrwt beam="2">0</pdfrwt>
<totfact> 0.40175677E+02</totfact>
</mgrwt>
</event>
<event>
 6    1  0.1273846E-001  0.3000000E+03  0.7818608E-02  0.1093470E+00
         21   -1    0    0  501  502  0.00000000000E+00  0.00000000000E+00  0.94570181348E+01  0.94570181348E+01  0.00000000000E+00 0. -1.
         13   -1    0    0    0    0 -0.00000000000E+00 -0.00000000000E+00 -0.10000000000E+04  0.10000000000E+04  0.00000000000E+00 0.  1.
    9000005    2    1    2  501    0  0.50030845778E+02 -0.74639396835E+02 -0.68807637512E+03  0.69392544557E+03  0.30497413446E+01 0.  0.
         13    1    3    3    0    0  0.26636563021E+02 -0.37021620415E+02 -0.35053011781E+03  0.35348475266E+03  0.00000000000E+00 0.  1.
          1    1    3    3  501    0  0.23394282757E+02 -0.37617776419E+02 -0.33754625731E+03  0.34044069291E+03  0.00000000000E+00 0.  1.
         -1    1    1    2    0  502 -0.50030845778E+02  0.74639396835E+02 -0.30246660674E+03  0.31553157256E+03  0.00000000000E+00 0. -1.
<mgrwt>
<rscale>  1 0.30000000E+03</rscale>
<asrwt>0</asrwt>
<pdfrwt beam="1">  1       21 0.34389229E-01 0.30000000E+03</pdfrwt>
<pdfrwt beam="2">0</pdfrwt>
<totfact> 0.82494212E+02</totfact>
</mgrwt>
</event>
<event>
 6    1  0.1273846E-001  0.3000000E+03  0.7818608E-02  0.1093470E+00
         21   -1    0    0  501  502  0.00000000000E+00  0.00000000000E+00  0.22575351782E+01  0.22575351782E+01  0.00000000000E+00 0. -1.
         13   -1    0    0    0    0 -0.00000000000E+00 -0.00000000000E+00 -0.10000000000E+04  0.10000000000E+04  0.00000000000E+00 0.  1.
    9000005    2    1    2  501    0 -0.35231677662E+02  0.16032193929E+02 -0.78874732645E+03  0.78970808160E+03  0.42669438837E+01 0.  0.
         13    1    3    3    0    0 -0.13403174087E+02  0.83765996454E+01 -0.31404926548E+03  0.31444674215E+03  0.00000000000E+00 0.  1.
          1    1    3    3  501    0 -0.21828503575E+02  0.76555942835E+01 -0.47469806097E+03  0.47526133945E+03  0.00000000000E+00 0.  1.
         -1    1    1    2    0  502  0.35231677662E+02 -0.16032193929E+02 -0.20899513837E+03  0.21254945357E+03  0.00000000000E+00 0. -1.
<mgrwt>
<rscale>  1 0.30000000E+03</rscale>
<asrwt>0</asrwt>
<pdfrwt beam="1">  1       21 0.82092361E-02 0.30000000E+03</pdfrwt>
<pdfrwt beam="2">0</pdfrwt>
<totfact> 0.12207105E+04</totfact>
</mgrwt>
</event>
<event>
 6    1  0.1273846E-001  0.3000000E+03  0.7818608E-02  0.1093470E+00
         21   -1    0    0  501  502  0.00000000000E+00  0.00000000000E+00  0.10498931843E+01  0.10498931843E+01  0.00000000000E+00 0. -1.
         13   -1    0    0    0    0 -0.00000000000E+00 -0.00000000000E+00 -0.10000000000E+04  0.10000000000E+04  0.00000000000E+00 0.  1.
    9000005    2    1    2  501    0 -0.25654545510E+02 -0.15913539614E+02 -0.67451354109E+03  0.67521177137E+03  0.55697964784E+01 0.  0.
         13    1    3    3    0    0 -0.12763329186E+02 -0.77469695528E+01 -0.39485994432E+03  0.39514211840E+03  0.00000000000E+00 0.  1.
          1    1    3    3  501    0 -0.12891216324E+02 -0.81665700613E+01 -0.27965359677E+03  0.28006965297E+03  0.00000000000E+00 0.  1.
         -1    1    1    2    0  502  0.25654545510E+02  0.15913539614E+02 -0.32443656573E+03  0.32583812182E+03  0.00000000000E+00 0. -1.
<mgrwt>
<rscale>  1 0.30000000E+03</rscale>
<asrwt>0</asrwt>
<pdfrwt beam="1">  1       21 0.38178014E-02 0.30000000E+03</pdfrwt>
<pdfrwt beam="2">0</pdfrwt>
<totfact> 0.45477534E+04</totfact>
</mgrwt>
</event>
<event>
 6    1  0.1273846E-001  0.3000000E+03  0.7818608E-02  0.1093470E+00
         21   -1    0    0  501  502  0.00000000000E+00  0.00000000000E+00  0.37771148074E+01  0.37771148074E+01  0.00000000000E+00 0. -1.
         13   -1    0    0    0    0 -0.00000000000E+00 -0.00000000000E+00 -0.10000000000E+04  0.10000000000E+04  0.00000000000E+00 0.  1.
    9000005    2    1    2  501    0 -0.49916487526E+02 -0.21407382867E+02 -0.73214186889E+03  0.73416866735E+03  0.46887280459E+01 0.  0.
         13    1    3    3    0    0 -0.47991825712E+02 -0.20043905488E+02 -0.70970832255E+03  0.71161146462E+03  0.00000000000E+00 0.  1.
          3    1    3    3  501    0 -0.19246618149E+01 -0.13634773790E+01 -0.22433546338E+02  0.22557202729E+02  0.00000000000E+00 0.  1.
         -1    1    1    2    0  502  0.49916487526E+02  0.21407382867E+02 -0.26408101630E+03  0.26960844745E+03  0.00000000000E+00 0. -1.
<mgrwt>
<rscale>  1 0.30000000E+03</rscale>
<asrwt>0</asrwt>
<pdfrwt beam="1">  1       21 0.13734992E-01 0.30000000E+03</pdfrwt>
<pdfrwt beam="2">0</pdfrwt>
<totfact> 0.48436551E+03</totfact>
</mgrwt>
</event>
<event>
 6    1  0.1273846E-001  0.3000000E+03  0.7818608E-02  0.1093470E+00
         21   -1    0    0  501  502  0.00000000000E+00  0.00000000000E+00  0.92861796517E+01  0.92861796517E+01  0.00000000000E+00 0. -1.
         13   -1    0    0    0    0 -0.00000000000E+00 -0.00000000000E+00 -0.10000000000E+04  0.10000000000E+04  0.00000000000E+00 0.  1.
    9000005    2    1    2  501    0 -0.46894939921E+02 -0.13255286327E+01 -0.93613021568E+03  0.93731214048E+03  0.36572614912E+01 0.  0.
         13    1    3    3    0    0 -0.11483130681E+02 -0.65123809682E-01 -0.26145077791E+03  0.26170283874E+03  0.00000000000E+00 0.  1.
          3    1    3    3  501    0 -0.35411809240E+02 -0.12604048230E+01 -0.67467943777E+03  0.67560930174E+03  0.00000000000E+00 0.  1.
         -1    1    1    2    0  502  0.46894939921E+02  0.13255286327E+01 -0.54583604667E+02  0.71974039172E+02  0.00000000000E+00 0. -1.
<mgrwt>
<rscale>  1 0.30000000E+03</rscale>
<asrwt>0</asrwt>
<pdfrwt beam="1">  1       21 0.33767997E-01 0.30000000E+03</pdfrwt>
<pdfrwt beam="2">0</pdfrwt>
<totfact> 0.85618596E+02</totfact>
</mgrwt>
</event>
<event>
 6    1  0.1273846E-001  0.3000000E+03  0.7818608E-02  0.1093470E+00
         21   -1    0    0  501  502  0.00000000000E+00  0.00000000000E+00  0.16687475796E+01  0.16687475796E+01  0.00000000000E+00 0. -1.
         13   -1    0    0    0    0 -0.00000000000E+00 -0.00000000000E+00 -0.10000000000E+04  0.10000000000E+04  0.00000000000E+00 0.  1.
    9000005    2    1    2  501    0 -0.85122617134E+00  0.40708186280E+02 -0.47437046225E+03  0.47612827278E+03  0.35938376845E+01 0.  0.
         13    1    3    3    0    0 -0.16789825450E+01  0.91538599121E+01 -0.10537534756E+03  0.10578551890E+03  0.00000000000E+00 0.  1.
          1    1    3    3  501    0  0.82775637369E+00  0.31554326368E+02 -0.36899511469E+03  0.37034275389E+03  0.00000000000E+00 0.  1.
         -3    1    1    2    0  502  0.85122617134E+00 -0.40708186280E+02 -0.52396079017E+03  0.52554047480E+03  0.00000000000E+00 0. -1.
<mgrwt>
<rscale>  1 0.30000000E+03</rscale>
<asrwt>0</asrwt>
<pdfrwt beam="1">  1       21 0.60681858E-02 0.30000000E+03</pdfrwt>
<pdfrwt beam="2">0</pdfrwt>
<totfact> 0.20664887E+04</totfact>
</mgrwt>
</event>
<event>
 6    1  0.1273846E-001  0.3000000E+03  0.7818608E-02  0.1093470E+00
         21   -1    0    0  501  502  0.00000000000E+00  0.00000000000E+00  0.18136698389E+01  0.18136698389E+01  0.00000000000E+00 0. -1.
         13   -1    0    0    0    0 -0.00000000000E+00 -0.00000000000E+00 -0.10000000000E+04  0.10000000000E+04  0.00000000000E+00 0.  1.
    9000005    2    1    2  501    0  0.34916929757E+02  0.19660453374E+01 -0.78377963983E+03  0.78457351200E+03  0.46919725461E+01 0.  0.
         13    1    3    3    0    0  0.21350775064E+02 -0.98492767120E+00 -0.49046594839E+03  0.49093143331E+03  0.00000000000E+00 0.  1.
          1    1    3    3  501    0  0.13566154693E+02  0.29509730086E+01 -0.29331369144E+03  0.29364207869E+03  0.00000000000E+00 0.  1.
         -1    1    1    2    0  502 -0.34916929757E+02 -0.19660453374E+01 -0.21440669033E+03  0.21724015784E+03  0.00000000000E+00 0. -1.
<mgrwt>
<rscale>  1 0.30000000E+03</rscale>
<asrwt>0</asrwt>
<pdfrwt beam="1">  1       21 0.65951770E-02 0.30000000E+03</pdfrwt>
<pdfrwt beam="2">0</pdfrwt>
<totfact> 0.17893772E+04</totfact>
</mgrwt>
</event>
<event>
 6    1  0.1273846E-001  0.3000000E+03  0.7818608E-02  0.1093470E+00
         21   -1    0    0  501  502  0.00000000000E+00  0.00000000000E+00  0.23720849252E+01  0.23720849252E+01  0.00000000000E+00 0. -1.
         13   -1    0    0    0    0 -0.00000000000E+00 -0.00000000000E+00 -0.10000000000E+04  0.10000000000E+04  0.00000000000E+00 0.  1.
    9000005    2    1    2  501    0  0.81558689342E+01 -0.40775522378E+02 -0.75917465641E+03  0.76032019381E+03  0.33877368376E+01 0.  0.
         13    1    3    3    0    0  0.41969905495E-01 -0.22739421121E+01 -0.31064323391E+02  0.31147467986E+02  0.00000000000E+00 0.  1.
          3    1    3    3  501    0  0.81138990287E+01 -0.38501580266E+02 -0.72811033302E+03  0.72917272583E+03  0.00000000000E+00 0.  1.
         -3    1    1    2    0  502 -0.81558689342E+01  0.40775522378E+02 -0.23845325867E+03  0.24205189111E+03  0.00000000000E+00 0. -1.
<mgrwt>
<rscale>  1 0.30000000E+03</rscale>
<asrwt>0</asrwt>
<pdfrwt beam="1">  1       21 0.86257816E-02 0.30000000E+03</pdfrwt>
<pdfrwt beam="2">0</pdfrwt>
<totfact> 0.11187523E+04</totfact>
</mgrwt>
</event>
<event>
 6    1  0.1273846E-001  0.3000000E+03  0.7818608E-02  0.1093470E+00
         21   -1    0    0  501  502  0.00000000000E+00  0.00000000000E+00  0.11686130516E+01  0.11686130516E+01  0.00000000000E+00 0. -1.
         13   -1    0    0    0    0 -0.00000000000E+00 -0.00000000000E+00 -0.10000000000E+04  0.10000000000E+04  0.00000000000E+00 0.  1.
    9000005    2    1    2  501    0 -0.29079827780E+02 -0.11488820282E+02 -0.69995627407E+03  0.70066243596E+03  0.33814454362E+01 0.  0.
         13    1    3    3    0    0 -0.12980460291E+02 -0.51003831309E+01 -0.27520293461E+03  0.27555609498E+03  0.00000000000E+00 0.  1.
          1    1    3    3  501    0 -0.16099367488E+02 -0.63884371516E+01 -0.42475333946E+03  0.42510634098E+03  0.00000000000E+00 0.  1.
         -3    1    1    2    0  502  0.29079827780E+02  0.11488820282E+02 -0.29887511287E+03  0.30050617709E+03  0.00000000000E+00 0. -1.
<mgrwt>
<rscale>  1 0.30000000E+03</rscale>
<asrwt>0</asrwt>
<pdfrwt beam="1">  1       21 0.42495110E-02 0.30000000E+03</pdfrwt>
<pdfrwt beam="2">0</pdfrwt>
<totfact> 0.37967327E+04</totfact>
</mgrwt>
</event>
<event>
 6    1  0.1273846E-001  0.3000000E+03  0.7818608E-02  0.1093470E+00
         21   -1    0    0  501  502  0.00000000000E+00  0.00000000000E+00  0.23485873752E+01  0.23485873752E+01  0.00000000000E+00 0. -1.
         13   -1    0    0    0    0 -0.00000000000E+00 -0.00000000000E+00 -0.10000000000E+04  0.10000000000E+04  0.00000000000E+00 0.  1.
    9000005    2    1    2  501    0 -0.46460688305E+01  0.43193304856E+02 -0.72001445767E+03  0.72133341644E+03  0.37189887314E+01 0.  0.
         13    1    3    3    0    0 -0.18638877814E+01  0.19518096212E+02 -0.29482435825E+03  0.29547560368E+03  0.00000000000E+00 0.  1.
          1    1    3    3  501    0 -0.27821810491E+01  0.23675208644E+02 -0.42519009942E+03  0.42585781275E+03  0.00000000000E+00 0.  1.
         -1    1    1    2    0  502  0.46460688305E+01 -0.43193304856E+02 -0.27763695496E+03  0.28101517094E+03  0.00000000000E+00 0. -1.
<mgrwt>
<rscale>  1 0.30000000E+03</rscale>
<asrwt>0</asrwt>
<pdfrwt beam="1">  1       21 0.85403357E-02 0.30000000E+03</pdfrwt>
<pdfrwt beam="2">0</pdfrwt>
<totfact> 0.11385798E+04</totfact>
</mgrwt>
</event>
<event>
 6    1  0.1273846E-001  0.3000000E+03  0.7818608E-02  0.1093470E+00
         21   -1    0    0  501  502  0.00000000000E+00  0.00000000000E+00  0.13518902555E+01  0.13518902555E+01  0.00000000000E+00 0. -1.
         13   -1    0    0    0    0 -0.00000000000E+00 -0.00000000000E+00 -0.10000000000E+04  0.10000000000E+04  0.00000000000E+00 0.  1.
    9000005    2    1    2  501    0  0.22859413085E+02  0.20081400920E+02 -0.77933545971E+03  0.77993858015E+03  0.38229054089E+01 0.  0.
         13    1    3    3    0    0  0.69514498892E+01  0.47258928485E+01 -0.25092020310E+03  0.25106095882E+03  0.00000000000E+00 0.  1.
          3    1    3    3  501    0  0.15907963196E+02  0.15355508071E+02 -0.52841525661E+03  0.52887762133E+03  0.00000000000E+00 0.  1.
         -1    1    1    2    0  502 -0.22859413085E+02 -0.20081400920E+02 -0.21931265003E+03  0.22141331011E+03  0.00000000000E+00 0. -1.
<mgrwt>
<rscale>  1 0.30000000E+03</rscale>
<asrwt>0</asrwt>
<pdfrwt beam="1">  1       21 0.49159749E-02 0.30000000E+03</pdfrwt>
<pdfrwt beam="2">0</pdfrwt>
<totfact> 0.29648651E+04</totfact>
</mgrwt>
</event>
<event>
 6    1  0.1273846E-001  0.3000000E+03  0.7818608E-02  0.1093470E+00
         21   -1    0    0  501  502  0.00000000000E+00  0.00000000000E+00  0.22719889396E+01  0.22719889396E+01  0.00000000000E+00 0. -1.
         13   -1    0    0    0    0 -0.00000000000E+00 -0.00000000000E+00 -0.10000000000E+04  0.10000000000E+04  0.00000000000E+00 0.  1.
    9000005    2    1    2  501    0  0.14478867878E+02  0.37022377776E+02 -0.77490551071E+03  0.77593118234E+03  0.32179376238E+01 0.  0.
         13    1    3    3    0    0  0.13441983112E+02  0.33221836769E+02 -0.71343331655E+03  0.71433288775E+03  0.00000000000E+00 0.  1.
          1    1    3    3  501    0  0.10368847668E+01  0.38005410068E+01 -0.61472194156E+02  0.61598294589E+02  0.00000000000E+00 0.  1.
         -1    1    1    2    0  502 -0.14478867878E+02 -0.37022377776E+02 -0.22282250035E+03  0.22634080660E+03  0.00000000000E+00 0. -1.
<mgrwt>
<rscale>  1 0.30000000E+03</rscale>
<asrwt>0</asrwt>
<pdfrwt beam="1">  1       21 0.82617954E-02 0.30000000E+03</pdfrwt>
<pdfrwt beam="2">0</pdfrwt>
<totfact> 0.12070792E+04</totfact>
</mgrwt>
</event>
<event>
 6    1  0.1273846E-001  0.3000000E+03  0.7818608E-02  0.1093470E+00
         21   -1    0    0  501  502  0.00000000000E+00  0.00000000000E+00  0.24818935771E+01  0.24818935771E+01  0.00000000000E+00 0. -1.
         13   -1    0    0    0    0 -0.00000000000E+00 -0.00000000000E+00 -0.10000000000E+04  0.10000000000E+04  0.00000000000E+00 0.  1.
    9000005    2    1    2  501    0 -0.15458906545E+02 -0.30308903395E+02 -0.86460702675E+03  0.86528509144E+03  0.39206310937E+01 0.  0.
         13    1    3    3    0    0 -0.12713125005E+01 -0.93832536576E+00 -0.51084474402E+02  0.51108905436E+02  0.00000000000E+00 0.  1.
          1    1    3    3  501    0 -0.14187594044E+02 -0.29370578029E+02 -0.81352255235E+03  0.81417618601E+03  0.00000000000E+00 0.  1.
         -1    1    1    2    0  502  0.15458906545E+02  0.30308903395E+02 -0.13291107967E+03  0.13719680213E+03  0.00000000000E+00 0. -1.
<mgrwt>
<rscale>  1 0.30000000E+03</rscale>
<asrwt>0</asrwt>
<pdfrwt beam="1">  1       21 0.90250866E-02 0.30000000E+03</pdfrwt>
<pdfrwt beam="2">0</pdfrwt>
<totfact> 0.10327030E+04</totfact>
</mgrwt>
</event>
<event>
 6    1  0.1273846E-001  0.3000000E+03  0.7818608E-02  0.1093470E+00
         21   -1    0    0  501  502  0.00000000000E+00  0.00000000000E+00  0.10724939786E+02  0.10724939786E+02  0.00000000000E+00 0. -1.
         13   -1    0    0    0    0 -0.00000000000E+00 -0.00000000000E+00 -0.10000000000E+04  0.10000000000E+04  0.00000000000E+00 0.  1.
    9000005    2    1    2  501    0  0.37224169316E+02 -0.32784598533E+02 -0.93823417704E+03  0.93955162711E+03  0.36633800143E+01 0.  0.
         13    1    3    3    0    0  0.18167765067E+02 -0.17833323856E+02 -0.50360363607E+03  0.50424668308E+03  0.00000000000E+00 0.  1.
          1    1    3    3  501    0  0.19056404249E+02 -0.14951274678E+02 -0.43463054097E+03  0.43530494403E+03  0.00000000000E+00 0.  1.
         -1    1    1    2    0  502 -0.37224169316E+02  0.32784598533E+02 -0.51040883172E+02  0.71173312675E+02  0.00000000000E+00 0. -1.
<mgrwt>
<rscale>  1 0.30000000E+03</rscale>
<asrwt>0</asrwt>
<pdfrwt beam="1">  1       21 0.38999863E-01 0.30000000E+03</pdfrwt>
<pdfrwt beam="2">0</pdfrwt>
<totfact> 0.63673122E+02</totfact>
</mgrwt>
</event>
<event>
 6    1  0.1273846E-001  0.3000000E+03  0.7818608E-02  0.1093470E+00
         21   -1    0    0  501  502  0.00000000000E+00  0.00000000000E+00  0.42820128187E+01  0.42820128187E+01  0.00000000000E+00 0. -1.
         13   -1    0    0    0    0 -0.00000000000E+00 -0.00000000000E+00 -0.10000000000E+04  0.10000000000E+04  0.00000000000E+00 0.  1.
    9000005    2    1    2  501    0 -0.36375074142E+02  0.46748030948E+02 -0.71086803636E+03  0.71333868689E+03  0.31925987801E+01 0.  0.
         13    1    3    3    0    0 -0.33702964642E+02  0.42142807728E+02 -0.63996294232E+03  0.64223397108E+03  0.00000000000E+00 0.  1.
          3    1    3    3  501    0 -0.26721095007E+01  0.46052232201E+01 -0.70905094043E+02  0.71104715817E+02  0.00000000000E+00 0.  1.
         -1    1    1    2    0  502  0.36375074142E+02 -0.46748030948E+02 -0.28484995082E+03  0.29094332592E+03  0.00000000000E+00 0. -1.
<mgrwt>
<rscale>  1 0.30000000E+03</rscale>
<asrwt>0</asrwt>
<pdfrwt beam="1">  1       21 0.15570989E-01 0.30000000E+03</pdfrwt>
<pdfrwt beam="2">0</pdfrwt>
<totfact> 0.38422833E+03</totfact>
</mgrwt>
</event>
<event>
 6    1  0.1273846E-001  0.3000000E+03  0.7818608E-02  0.1093470E+00
         21   -1    0    0  501  502  0.00000000000E+00  0.00000000000E+00  0.10701368863E+01  0.10701368863E+01  0.00000000000E+00 0. -1.
         13   -1    0    0    0    0 -0.00000000000E+00 -0.00000000000E+00 -0.10000000000E+04  0.10000000000E+04  0.00000000000E+00 0.  1.
    9000005    2    1    2  501    0 -0.97160900979E+01 -0.30183067720E+02 -0.61946828477E+03  0.62028606497E+03  0.29028572198E+01 0.  0.
         13    1    3    3    0    0 -0.51254602408E+00 -0.32940351240E+01 -0.80457302330E+02  0.80526336493E+02  0.00000000000E+00 0.  1.
          3    1    3    3  501    0 -0.92035440738E+01 -0.26889032596E+02 -0.53901098244E+03  0.53975972848E+03  0.00000000000E+00 0.  1.
         -3    1    1    2    0  502  0.97160900979E+01  0.30183067720E+02 -0.37946157835E+03  0.38078407192E+03  0.00000000000E+00 0. -1.
<mgrwt>
<rscale>  1 0.30000000E+03</rscale>
<asrwt>0</asrwt>
<pdfrwt beam="1">  1       21 0.38914151E-02 0.30000000E+03</pdfrwt>
<pdfrwt beam="2">0</pdfrwt>
<totfact> 0.44040599E+04</totfact>
</mgrwt>
</event>
<event>
 6    1  0.1273846E-001  0.3000000E+03  0.7818608E-02  0.1093470E+00
         21   -1    0    0  501  502  0.00000000000E+00  0.00000000000E+00  0.77231833384E+01  0.77231833384E+01  0.00000000000E+00 0. -1.
         13   -1    0    0    0    0 -0.00000000000E+00 -0.00000000000E+00 -0.10000000000E+04  0.10000000000E+04  0.00000000000E+00 0.  1.
    9000005    2    1    2  501    0  0.17244285273E+02  0.45719913880E+02 -0.91488050876E+03  0.91619250883E+03  0.38330171096E+01 0.  0.
         13    1    3    3    0    0  0.12393728900E+02  0.36584311152E+02 -0.70534077614E+03  0.70639764073E+03  0.00000000000E+00 0.  1.
          3    1    3    3  501    0  0.48505563730E+01  0.91356027282E+01 -0.20953973262E+03  0.20979486810E+03  0.00000000000E+00 0.  1.
         -3    1    1    2    0  502 -0.17244285273E+02 -0.45719913880E+02 -0.77396307899E+02  0.91530674510E+02  0.00000000000E+00 0. -1.
<mgrwt>
<rscale>  1 0.30000000E+03</rscale>
<asrwt>0</asrwt>
<pdfrwt beam="1">  1       21 0.28084362E-01 0.30000000E+03</pdfrwt>
<pdfrwt beam="2">0</pdfrwt>
<totfact> 0.12399796E+03</totfact>
</mgrwt>
</event>
<event>
 6    1  0.1461610E-001  0.3000000E+03  0.7818608E-02  0.1093470E+00
         21   -1    0    0  501  502  0.00000000000E+00  0.00000000000E+00  0.21254347527E+01  0.21254347527E+01  0.00000000000E+00 0. -1.
         13   -1    0    0    0    0 -0.00000000000E+00 -0.00000000000E+00 -0.10000000000E+04  0.10000000000E+04  0.00000000000E+00 0.  1.
    9000005    2    1    2  501    0 -0.39585090429E+01  0.30285878766E+02 -0.87240289997E+03  0.87298968047E+03  0.95529098147E+01 0.  0.
         13    1    3    3    0    0 -0.60417303440E+01  0.13819646538E+02 -0.35402501157E+03  0.35434614991E+03  0.00000000000E+00 0.  1.
          1    1    3    3  501    0  0.20832213010E+01  0.16466232229E+02 -0.51837788840E+03  0.51864353056E+03  0.00000000000E+00 0.  1.
         -3    1    1    2    0  502  0.39585090429E+01 -0.30285878766E+02 -0.12547166528E+03  0.12913575428E+03  0.00000000000E+00 0. -1.
<mgrwt>
<rscale>  1 0.30000000E+03</rscale>
<asrwt>0</asrwt>
<pdfrwt beam="1">  1       21 0.77288699E-02 0.30000000E+03</pdfrwt>
<pdfrwt beam="2">0</pdfrwt>
<totfact> 0.13570603E+04</totfact>
</mgrwt>
</event>
<event>
 6    1  0.1273846E-001  0.3000000E+03  0.7818608E-02  0.1093470E+00
         21   -1    0    0  501  502  0.00000000000E+00  0.00000000000E+00  0.28817093292E+01  0.28817093292E+01  0.00000000000E+00 0. -1.
         13   -1    0    0    0    0 -0.00000000000E+00 -0.00000000000E+00 -0.10000000000E+04  0.10000000000E+04  0.00000000000E+00 0.  1.
    9000005    2    1    2  501    0  0.25849146807E+02  0.22068410839E+02 -0.88657562809E+03  0.88723192162E+03  0.29908634122E+01 0.  0.
         13    1    3    3    0    0  0.85472882770E+00  0.10238795741E+01 -0.51617633650E+02  0.51634862200E+02  0.00000000000E+00 0.  1.
          1    1    3    3  501    0  0.24994417980E+02  0.21044531265E+02 -0.83495799444E+03  0.83559705942E+03  0.00000000000E+00 0.  1.
         -3    1    1    2    0  502 -0.25849146807E+02 -0.22068410839E+02 -0.11054266258E+03  0.11564978771E+03  0.00000000000E+00 0. -1.
<mgrwt>
<rscale>  1 0.30000000E+03</rscale>
<asrwt>0</asrwt>
<pdfrwt beam="1">  1       21 0.10478965E-01 0.30000000E+03</pdfrwt>
<pdfrwt beam="2">0</pdfrwt>
<totfact> 0.79122577E+03</totfact>
</mgrwt>
</event>
<event>
 6    1  0.1273846E-001  0.3000000E+03  0.7818608E-02  0.1093470E+00
         21   -1    0    0  501  502  0.00000000000E+00  0.00000000000E+00  0.18014007565E+01  0.18014007565E+01  0.00000000000E+00 0. -1.
         13   -1    0    0    0    0 -0.00000000000E+00 -0.00000000000E+00 -0.10000000000E+04  0.10000000000E+04  0.00000000000E+00 0.  1.
    9000005    2    1    2  501    0  0.63056859209E+01  0.41481600816E+02 -0.43249691006E+03  0.43454582694E+03  0.40017019083E+01 0.  0.
         13    1    3    3    0    0  0.20623818279E+01  0.25284456476E+02 -0.26929137459E+03  0.27048364384E+03  0.00000000000E+00 0.  1.
          3    1    3    3  501    0  0.42433040930E+01  0.16197144340E+02 -0.16320553547E+03  0.16406218310E+03  0.00000000000E+00 0.  1.
         -3    1    1    2    0  502 -0.63056859209E+01 -0.41481600816E+02 -0.56570168918E+03  0.56725557381E+03  0.00000000000E+00 0. -1.
<mgrwt>
<rscale>  1 0.30000000E+03</rscale>
<asrwt>0</asrwt>
<pdfrwt beam="1">  1       21 0.65505620E-02 0.30000000E+03</pdfrwt>
<pdfrwt beam="2">0</pdfrwt>
<totfact> 0.18105449E+04</totfact>
</mgrwt>
</event>
<event>
 6    1  0.1273846E-001  0.3000000E+03  0.7818608E-02  0.1093470E+00
         21   -1    0    0  501  502  0.00000000000E+00  0.00000000000E+00  0.18451722419E+01  0.18451722419E+01  0.00000000000E+00 0. -1.
         13   -1    0    0    0    0 -0.00000000000E+00 -0.00000000000E+00 -0.10000000000E+04  0.10000000000E+04  0.00000000000E+00 0.  1.
    9000005    2    1    2  501    0  0.40040009638E+02  0.65578911570E+01 -0.66167289217E+03  0.66292585841E+03  0.36700427125E+01 0.  0.
         13    1    3    3    0    0  0.16055510384E+02  0.81307155620E+00 -0.26024082432E+03  0.26073689256E+03  0.00000000000E+00 0.  1.
          1    1    3    3  501    0  0.23984499254E+02  0.57448196008E+01 -0.40143206785E+03  0.40218896585E+03  0.00000000000E+00 0.  1.
         -3    1    1    2    0  502 -0.40040009638E+02 -0.65578911570E+01 -0.33648193559E+03  0.33891931383E+03  0.00000000000E+00 0. -1.
<mgrwt>
<rscale>  1 0.30000000E+03</rscale>
<asrwt>0</asrwt>
<pdfrwt beam="1">  1       21 0.67097314E-02 0.30000000E+03</pdfrwt>
<pdfrwt beam="2">0</pdfrwt>
<totfact> 0.17367397E+04</totfact>
</mgrwt>
</event>
<event>
 6    1  0.1273846E-001  0.3000000E+03  0.7818608E-02  0.1093470E+00
         21   -1    0    0  501  502  0.00000000000E+00  0.00000000000E+00  0.18264717900E+01  0.18264717900E+01  0.00000000000E+00 0. -1.
         13   -1    0    0    0    0 -0.00000000000E+00 -0.00000000000E+00 -0.10000000000E+04  0.10000000000E+04  0.00000000000E+00 0.  1.
    9000005    2    1    2  501    0  0.19747555097E+02  0.25531929274E+02 -0.82650007281E+03  0.82714498841E+03  0.49614677597E+01 0.  0.
         13    1    3    3    0    0  0.16315019683E+02  0.22285766652E+02 -0.74092104125E+03  0.74143565104E+03  0.00000000000E+00 0.  1.
          3    1    3    3  501    0  0.34325354137E+01  0.32461626212E+01 -0.85579031559E+02  0.85709337377E+02  0.00000000000E+00 0.  1.
         -1    1    1    2    0  502 -0.19747555097E+02 -0.25531929274E+02 -0.17167345540E+03  0.17468148338E+03  0.00000000000E+00 0. -1.
<mgrwt>
<rscale>  1 0.30000000E+03</rscale>
<asrwt>0</asrwt>
<pdfrwt beam="1">  1       21 0.66417296E-02 0.30000000E+03</pdfrwt>
<pdfrwt beam="2">0</pdfrwt>
<totfact> 0.17676940E+04</totfact>
</mgrwt>
</event>
<event>
 6    1  0.1273846E-001  0.3000000E+03  0.7818608E-02  0.1093470E+00
         21   -1    0    0  501  502  0.00000000000E+00  0.00000000000E+00  0.16493844899E+01  0.16493844899E+01  0.00000000000E+00 0. -1.
         13   -1    0    0    0    0 -0.00000000000E+00 -0.00000000000E+00 -0.10000000000E+04  0.10000000000E+04  0.00000000000E+00 0.  1.
    9000005    2    1    2  501    0 -0.23087601350E+02  0.31971483655E+02 -0.61657924399E+03  0.61784657937E+03  0.30361852097E+01 0.  0.
         13    1    3    3    0    0 -0.10361441336E+02  0.15807412666E+02 -0.31486219966E+03  0.31542897542E+03  0.00000000000E+00 0.  1.
          1    1    3    3  501    0 -0.12726160014E+02  0.16164070988E+02 -0.30171704433E+03  0.30241760395E+03  0.00000000000E+00 0.  1.
         -3    1    1    2    0  502  0.23087601350E+02 -0.31971483655E+02 -0.38177137152E+03  0.38380280512E+03  0.00000000000E+00 0. -1.
<mgrwt>
<rscale>  1 0.30000000E+03</rscale>
<asrwt>0</asrwt>
<pdfrwt beam="1">  1       21 0.59977744E-02 0.30000000E+03</pdfrwt>
<pdfrwt beam="2">0</pdfrwt>
<totfact> 0.21085152E+04</totfact>
</mgrwt>
</event>
<event>
 6    1  0.1273846E-001  0.3000000E+03  0.7818608E-02  0.1093470E+00
         21   -1    0    0  501  502  0.00000000000E+00  0.00000000000E+00  0.15492103156E+01  0.15492103156E+01  0.00000000000E+00 0. -1.
         13   -1    0    0    0    0 -0.00000000000E+00 -0.00000000000E+00 -0.10000000000E+04  0.10000000000E+04  0.00000000000E+00 0.  1.
    9000005    2    1    2  501    0 -0.84318976322E+01 -0.34065784737E+02 -0.28112072870E+03  0.28336121892E+03  0.57568826358E+01 0.  0.
         13    1    3    3    0    0 -0.38825298855E+01 -0.25981679055E+02 -0.20391813308E+03  0.20560332362E+03  0.00000000000E+00 0.  1.
          1    1    3    3  501    0 -0.45493677468E+01 -0.80841056826E+01 -0.77202595615E+02  0.77757895299E+02  0.00000000000E+00 0.  1.
         -1    1    1    2    0  502  0.84318976322E+01  0.34065784737E+02 -0.71733006098E+03  0.71818799139E+03  0.00000000000E+00 0. -1.
<mgrwt>
<rscale>  1 0.30000000E+03</rscale>
<asrwt>0</asrwt>
<pdfrwt beam="1">  1       21 0.56335039E-02 0.30000000E+03</pdfrwt>
<pdfrwt beam="2">0</pdfrwt>
<totfact> 0.23487207E+04</totfact>
</mgrwt>
</event>
<event>
 6    1  0.1273846E-001  0.3000000E+03  0.7818608E-02  0.1093470E+00
         21   -1    0    0  501  502  0.00000000000E+00  0.00000000000E+00  0.13224419812E+01  0.13224419812E+01  0.00000000000E+00 0. -1.
         13   -1    0    0    0    0 -0.00000000000E+00 -0.00000000000E+00 -0.10000000000E+04  0.10000000000E+04  0.00000000000E+00 0.  1.
    9000005    2    1    2  501    0  0.30069010495E+02  0.48707019890E+00 -0.77829542305E+03  0.77889791986E+03  0.58156156124E+01 0.  0.
         13    1    3    3    0    0  0.25459741921E+01 -0.20958687744E+00 -0.11973470542E+03  0.11976195386E+03  0.00000000000E+00 0.  1.
          3    1    3    3  501    0  0.27523036303E+02  0.69665707633E+00 -0.65856071764E+03  0.65913596600E+03  0.00000000000E+00 0.  1.
         -3    1    1    2    0  502 -0.30069010495E+02 -0.48707019890E+00 -0.22038213497E+03  0.22242452212E+03  0.00000000000E+00 0. -1.
<mgrwt>
<rscale>  1 0.30000000E+03</rscale>
<asrwt>0</asrwt>
<pdfrwt beam="1">  1       21 0.48088901E-02 0.30000000E+03</pdfrwt>
<pdfrwt beam="2">0</pdfrwt>
<totfact> 0.30781466E+04</totfact>
</mgrwt>
</event>
<event>
 6    1  0.1273846E-001  0.3000000E+03  0.7818608E-02  0.1093470E+00
         21   -1    0    0  501  502  0.00000000000E+00  0.00000000000E+00  0.41016210236E+01  0.41016210236E+01  0.00000000000E+00 0. -1.
         13   -1    0    0    0    0 -0.00000000000E+00 -0.00000000000E+00 -0.10000000000E+04  0.10000000000E+04  0.00000000000E+00 0.  1.
    9000005    2    1    2  501    0  0.11528977829E+02  0.45447266176E+02 -0.83978965774E+03  0.84110375545E+03  0.32383432852E+01 0.  0.
         13    1    3    3    0    0  0.54499216950E+01  0.20568150487E+02 -0.35270082486E+03  0.35334207550E+03  0.00000000000E+00 0.  1.
          3    1    3    3  501    0  0.60790561336E+01  0.24879115689E+02 -0.48708883288E+03  0.48776167996E+03  0.00000000000E+00 0.  1.
         -1    1    1    2    0  502 -0.11528977829E+02 -0.45447266176E+02 -0.15610872124E+03  0.16299786557E+03  0.00000000000E+00 0. -1.
<mgrwt>
<rscale>  1 0.30000000E+03</rscale>
<asrwt>0</asrwt>
<pdfrwt beam="1">  1       21 0.14915017E-01 0.30000000E+03</pdfrwt>
<pdfrwt beam="2">0</pdfrwt>
<totfact> 0.41615554E+03</totfact>
</mgrwt>
</event>
<event>
 6    1  0.1273846E-001  0.3000000E+03  0.7818608E-02  0.1093470E+00
         21   -1    0    0  501  502  0.00000000000E+00  0.00000000000E+00  0.18871797373E+01  0.18871797373E+01  0.00000000000E+00 0. -1.
         13   -1    0    0    0    0 -0.00000000000E+00 -0.00000000000E+00 -0.10000000000E+04  0.10000000000E+04  0.00000000000E+00 0.  1.
    9000005    2    1    2  501    0  0.25225186000E+02  0.26905455021E+02 -0.76338900642E+03  0.76428355539E+03  0.25227755269E+01 0.  0.
         13    1    3    3    0    0  0.21667833993E+02  0.22963299288E+02 -0.67046817988E+03  0.67121113546E+03  0.00000000000E+00 0.  1.
          1    1    3    3  501    0  0.35573520074E+01  0.39421557332E+01 -0.92920826546E+02  0.93072419927E+02  0.00000000000E+00 0.  1.
         -1    1    1    2    0  502 -0.25225186000E+02 -0.26905455021E+02 -0.23472381384E+03  0.23760362435E+03  0.00000000000E+00 0. -1.
<mgrwt>
<rscale>  1 0.30000000E+03</rscale>
<asrwt>0</asrwt>
<pdfrwt beam="1">  1       21 0.68624862E-02 0.30000000E+03</pdfrwt>
<pdfrwt beam="2">0</pdfrwt>
<totfact> 0.16701699E+04</totfact>
</mgrwt>
</event>
<event>
 6    1  0.1273846E-001  0.3000000E+03  0.7818608E-02  0.1093470E+00
         21   -1    0    0  501  502  0.00000000000E+00  0.00000000000E+00  0.22885735122E+01  0.22885735122E+01  0.00000000000E+00 0. -1.
         13   -1    0    0    0    0 -0.00000000000E+00 -0.00000000000E+00 -0.10000000000E+04  0.10000000000E+04  0.00000000000E+00 0.  1.
    9000005    2    1    2  501    0  0.42036703769E+02 -0.98970536699E+01 -0.71291205037E+03  0.71423350799E+03  0.45690524199E+01 0.  0.
         13    1    3    3    0    0  0.14418983546E+02 -0.12186590623E+01 -0.24391350081E+03  0.24434235837E+03  0.00000000000E+00 0.  1.
          3    1    3    3  501    0  0.27617720223E+02 -0.86783946076E+01 -0.46899854955E+03  0.46989114961E+03  0.00000000000E+00 0.  1.
         -1    1    1    2    0  502 -0.42036703769E+02  0.98970536699E+01 -0.28479937612E+03  0.28805506553E+03  0.00000000000E+00 0. -1.
<mgrwt>
<rscale>  1 0.30000000E+03</rscale>
<asrwt>0</asrwt>
<pdfrwt beam="1">  1       21 0.83221030E-02 0.30000000E+03</pdfrwt>
<pdfrwt beam="2">0</pdfrwt>
<totfact> 0.11917234E+04</totfact>
</mgrwt>
</event>
<event>
 6    1  0.1273846E-001  0.3000000E+03  0.7818608E-02  0.1093470E+00
         21   -1    0    0  501  502  0.00000000000E+00  0.00000000000E+00  0.10650198142E+02  0.10650198142E+02  0.00000000000E+00 0. -1.
         13   -1    0    0    0    0 -0.00000000000E+00 -0.00000000000E+00 -0.10000000000E+04  0.10000000000E+04  0.00000000000E+00 0.  1.
    9000005    2    1    2  501    0 -0.43952087624E+02 -0.23484406286E+02 -0.93716189722E+03  0.93849147909E+03  0.32452074009E+01 0.  0.
         13    1    3    3    0    0 -0.37496687954E+02 -0.21216395023E+02 -0.81595982489E+03  0.81709642813E+03  0.00000000000E+00 0.  1.
          1    1    3    3  501    0 -0.64553996697E+01 -0.22680112633E+01 -0.12120207233E+03  0.12139505096E+03  0.00000000000E+00 0.  1.
         -3    1    1    2    0  502  0.43952087624E+02  0.23484406286E+02 -0.52187904636E+02  0.72158719053E+02  0.00000000000E+00 0. -1.
<mgrwt>
<rscale>  1 0.30000000E+03</rscale>
<asrwt>0</asrwt>
<pdfrwt beam="1">  1       21 0.38728075E-01 0.30000000E+03</pdfrwt>
<pdfrwt beam="2">0</pdfrwt>
<totfact> 0.64604685E+02</totfact>
</mgrwt>
</event>
<event>
 6    1  0.1273846E-001  0.3000000E+03  0.7818608E-02  0.1093470E+00
         21   -1    0    0  501  502  0.00000000000E+00  0.00000000000E+00  0.53188745517E+01  0.53188745517E+01  0.00000000000E+00 0. -1.
         13   -1    0    0    0    0 -0.00000000000E+00 -0.00000000000E+00 -0.10000000000E+04  0.10000000000E+04  0.00000000000E+00 0.  1.
    9000005    2    1    2  501    0 -0.29509914701E+02  0.28482557134E+02 -0.91292557806E+03  0.91385270236E+03  0.33999130761E+01 0.  0.
         13    1    3    3    0    0 -0.20201898359E+02  0.21614858409E+02 -0.65373241884E+03  0.65440155428E+03  0.00000000000E+00 0.  1.
          1    1    3    3  501    0 -0.93080163411E+01  0.68676987249E+01 -0.25919315922E+03  0.25945114808E+03  0.00000000000E+00 0.  1.
         -1    1    1    2    0  502  0.29509914701E+02 -0.28482557134E+02 -0.81755547388E+02  0.91466172190E+02  0.00000000000E+00 0. -1.
<mgrwt>
<rscale>  1 0.30000000E+03</rscale>
<asrwt>0</asrwt>
<pdfrwt beam="1">  1       21 0.19341403E-01 0.30000000E+03</pdfrwt>
<pdfrwt beam="2">0</pdfrwt>
<totfact> 0.25571928E+03</totfact>
</mgrwt>
</event>
<event>
 6    1  0.1273846E-001  0.3000000E+03  0.7818608E-02  0.1093470E+00
         21   -1    0    0  501  502  0.00000000000E+00  0.00000000000E+00  0.10538423290E+01  0.10538423290E+01  0.00000000000E+00 0. -1.
         13   -1    0    0    0    0 -0.00000000000E+00 -0.00000000000E+00 -0.10000000000E+04  0.10000000000E+04  0.00000000000E+00 0.  1.
    9000005    2    1    2  501    0  0.18185540241E+02 -0.25102394109E+02 -0.63633983475E+03  0.63712501758E+03  0.62496934059E+01 0.  0.
         13    1    3    3    0    0  0.56791902044E+01 -0.40714046173E+01 -0.17026759765E+03  0.17041092790E+03  0.00000000000E+00 0.  1.
          3    1    3    3  501    0  0.12506350037E+02 -0.21030989491E+02 -0.46607223710E+03  0.46671408968E+03  0.00000000000E+00 0.  1.
         -1    1    1    2    0  502 -0.18185540241E+02  0.25102394109E+02 -0.36260632292E+03  0.36392882475E+03  0.00000000000E+00 0. -1.
<mgrwt>
<rscale>  1 0.30000000E+03</rscale>
<asrwt>0</asrwt>
<pdfrwt beam="1">  1       21 0.38321620E-02 0.30000000E+03</pdfrwt>
<pdfrwt beam="2">0</pdfrwt>
<totfact> 0.45191491E+04</totfact>
</mgrwt>
</event>
<event>
 6    1  0.1273846E-001  0.3000000E+03  0.7818608E-02  0.1093470E+00
         21   -1    0    0  501  502  0.00000000000E+00  0.00000000000E+00  0.14399850463E+01  0.14399850463E+01  0.00000000000E+00 0. -1.
         13   -1    0    0    0    0 -0.00000000000E+00 -0.00000000000E+00 -0.10000000000E+04  0.10000000000E+04  0.00000000000E+00 0.  1.
    9000005    2    1    2  501    0 -0.54140398952E+01  0.30558171162E+02 -0.78681519574E+03  0.78743301760E+03  0.30807958228E+01 0.  0.
         13    1    3    3    0    0 -0.68779640842E+00  0.32613672222E+01 -0.11158827102E+03  0.11163803925E+03  0.00000000000E+00 0.  1.
          3    1    3    3  501    0 -0.47262434868E+01  0.27296803939E+02 -0.67522692472E+03  0.67579497834E+03  0.00000000000E+00 0.  1.
         -3    1    1    2    0  502  0.54140398952E+01 -0.30558171162E+02 -0.21174481921E+03  0.21400696745E+03  0.00000000000E+00 0. -1.
<mgrwt>
<rscale>  1 0.30000000E+03</rscale>
<asrwt>0</asrwt>
<pdfrwt beam="1">  1       21 0.52363203E-02 0.30000000E+03</pdfrwt>
<pdfrwt beam="2">0</pdfrwt>
<totfact> 0.26621382E+04</totfact>
</mgrwt>
</event>
<event>
 6    1  0.1273846E-001  0.3000000E+03  0.7818608E-02  0.1093470E+00
         21   -1    0    0  501  502  0.00000000000E+00  0.00000000000E+00  0.13282224670E+01  0.13282224670E+01  0.00000000000E+00 0. -1.
         13   -1    0    0    0    0 -0.00000000000E+00 -0.00000000000E+00 -0.10000000000E+04  0.10000000000E+04  0.00000000000E+00 0.  1.
    9000005    2    1    2  501    0 -0.71599315153E+01  0.29162593630E+02 -0.78176278770E+03  0.78235052644E+03  0.41914798301E+01 0.  0.
         13    1    3    3    0    0 -0.61393257262E+01  0.19018075443E+02 -0.48100839425E+03  0.48142336239E+03  0.00000000000E+00 0.  1.
          1    1    3    3  501    0 -0.10206057891E+01  0.10144518187E+02 -0.30075439344E+03  0.30092716405E+03  0.00000000000E+00 0.  1.
         -1    1    1    2    0  502  0.71599315153E+01 -0.29162593630E+02 -0.21690898983E+03  0.21897769603E+03  0.00000000000E+00 0. -1.
<mgrwt>
<rscale>  1 0.30000000E+03</rscale>
<asrwt>0</asrwt>
<pdfrwt beam="1">  1       21 0.48299101E-02 0.30000000E+03</pdfrwt>
<pdfrwt beam="2">0</pdfrwt>
<totfact> 0.30553826E+04</totfact>
</mgrwt>
</event>
<event>
 6    1  0.1273846E-001  0.3000000E+03  0.7818608E-02  0.1093470E+00
         21   -1    0    0  501  502  0.00000000000E+00  0.00000000000E+00  0.14607952804E+01  0.14607952804E+01  0.00000000000E+00 0. -1.
         13   -1    0    0    0    0 -0.00000000000E+00 -0.00000000000E+00 -0.10000000000E+04  0.10000000000E+04  0.00000000000E+00 0.  1.
    9000005    2    1    2  501    0  0.11964811490E+02  0.33662869606E+02 -0.67570164972E+03  0.67665249424E+03  0.30875602188E+01 0.  0.
         13    1    3    3    0    0  0.37873764087E+01  0.13362517719E+02 -0.24002351094E+03  0.24042501305E+03  0.00000000000E+00 0.  1.
          3    1    3    3  501    0  0.81774350810E+01  0.20300351888E+02 -0.43567813879E+03  0.43622748119E+03  0.00000000000E+00 0.  1.
         -3    1    1    2    0  502 -0.11964811490E+02 -0.33662869606E+02 -0.32283755500E+03  0.32480830104E+03  0.00000000000E+00 0. -1.
<mgrwt>
<rscale>  1 0.30000000E+03</rscale>
<asrwt>0</asrwt>
<pdfrwt beam="1">  1       21 0.53119940E-02 0.30000000E+03</pdfrwt>
<pdfrwt beam="2">0</pdfrwt>
<totfact> 0.25976235E+04</totfact>
</mgrwt>
</event>
<event>
 6    1  0.1273846E-001  0.3000000E+03  0.7818608E-02  0.1093470E+00
         21   -1    0    0  501  502  0.00000000000E+00  0.00000000000E+00  0.46965036791E+01  0.46965036791E+01  0.00000000000E+00 0. -1.
         13   -1    0    0    0    0 -0.00000000000E+00 -0.00000000000E+00 -0.10000000000E+04  0.10000000000E+04  0.00000000000E+00 0.  1.
    9000005    2    1    2  501    0  0.23253175583E+01  0.31046654725E+02 -0.94475055650E+03  0.94532562196E+03  0.10845075328E+02 0.  0.
         13    1    3    3    0    0  0.50428118459E+01  0.15833379975E+02 -0.37912736398E+03  0.37949134903E+03  0.00000000000E+00 0.  1.
          1    1    3    3  501    0 -0.27174942876E+01  0.15213274750E+02 -0.56562319252E+03  0.56583427293E+03  0.00000000000E+00 0.  1.
         -1    1    1    2    0  502 -0.23253175583E+01 -0.31046654725E+02 -0.50552939820E+02  0.59370881716E+02  0.00000000000E+00 0. -1.
<mgrwt>
<rscale>  1 0.30000000E+03</rscale>
<asrwt>0</asrwt>
<pdfrwt beam="1">  1       21 0.17078231E-01 0.30000000E+03</pdfrwt>
<pdfrwt beam="2">0</pdfrwt>
<totfact> 0.32335889E+03</totfact>
</mgrwt>
</event>
<event>
 6    1  0.1273846E-001  0.3000000E+03  0.7818608E-02  0.1093470E+00
         21   -1    0    0  501  502  0.00000000000E+00  0.00000000000E+00  0.36540221968E+01  0.36540221968E+01  0.00000000000E+00 0. -1.
         13   -1    0    0    0    0 -0.00000000000E+00 -0.00000000000E+00 -0.10000000000E+04  0.10000000000E+04  0.00000000000E+00 0.  1.
    9000005    2    1    2  501    0  0.27587805632E+02  0.18310509787E+02 -0.91795157541E+03  0.91855382176E+03  0.31091604100E+01 0.  0.
         13    1    3    3    0    0  0.41436987914E+01  0.16893518602E+01 -0.14069243345E+03  0.14076357831E+03  0.00000000000E+00 0.  1.
          3    1    3    3  501    0  0.23444106841E+02  0.16621157927E+02 -0.77725914197E+03  0.77779024345E+03  0.00000000000E+00 0.  1.
         -1    1    1    2    0  502 -0.27587805632E+02 -0.18310509787E+02 -0.78394402389E+02  0.85100200436E+02  0.00000000000E+00 0. -1.
<mgrwt>
<rscale>  1 0.30000000E+03</rscale>
<asrwt>0</asrwt>
<pdfrwt beam="1">  1       21 0.13287381E-01 0.30000000E+03</pdfrwt>
<pdfrwt beam="2">0</pdfrwt>
<totfact> 0.51466892E+03</totfact>
</mgrwt>
</event>
<event>
 6    1  0.1273846E-001  0.3000000E+03  0.7818608E-02  0.1093470E+00
         21   -1    0    0  501  502  0.00000000000E+00  0.00000000000E+00  0.11761312743E+01  0.11761312743E+01  0.00000000000E+00 0. -1.
         13   -1    0    0    0    0 -0.00000000000E+00 -0.00000000000E+00 -0.10000000000E+04  0.10000000000E+04  0.00000000000E+00 0.  1.
    9000005    2    1    2  501    0  0.84847500074E+00 -0.31451086629E+02 -0.69704783216E+03  0.69776441923E+03  0.31005911312E+01 0.  0.
         13    1    3    3    0    0  0.34513891204E+00 -0.95344874453E+00 -0.34425523820E+02  0.34440454057E+02  0.00000000000E+00 0.  1.
          3    1    3    3  501    0  0.50333608870E+00 -0.30497637884E+02 -0.66262230834E+03  0.66332396518E+03  0.00000000000E+00 0.  1.
         -1    1    1    2    0  502 -0.84847500074E+00  0.31451086629E+02 -0.30177603656E+03  0.30341171204E+03  0.00000000000E+00 0. -1.
<mgrwt>
<rscale>  1 0.30000000E+03</rscale>
<asrwt>0</asrwt>
<pdfrwt beam="1">  1       21 0.42768500E-02 0.30000000E+03</pdfrwt>
<pdfrwt beam="2">0</pdfrwt>
<totfact> 0.37558011E+04</totfact>
</mgrwt>
</event>
<event>
 6    1  0.1273846E-001  0.3000000E+03  0.7818608E-02  0.1093470E+00
         21   -1    0    0  501  502  0.00000000000E+00  0.00000000000E+00  0.93333670740E+00  0.93333670740E+00  0.00000000000E+00 0. -1.
         13   -1    0    0    0    0 -0.00000000000E+00 -0.00000000000E+00 -0.10000000000E+04  0.10000000000E+04  0.00000000000E+00 0.  1.
    9000005    2    1    2  501    0  0.14865185839E+02 -0.26513202568E+02 -0.53312906054E+03  0.53400531943E+03  0.33410067469E+01 0.  0.
         13    1    3    3    0    0  0.69306076643E+00 -0.28140549124E+00 -0.15974151265E+02  0.15991655040E+02  0.00000000000E+00 0.  1.
          3    1    3    3  501    0  0.14172125072E+02 -0.26231797077E+02 -0.51715490928E+03  0.51801366439E+03  0.00000000000E+00 0.  1.
         -1    1    1    2    0  502 -0.14865185839E+02  0.26513202568E+02 -0.46593760275E+03  0.46692801728E+03  0.00000000000E+00 0. -1.
<mgrwt>
<rscale>  1 0.30000000E+03</rscale>
<asrwt>0</asrwt>
<pdfrwt beam="1">  1       21 0.33939588E-02 0.30000000E+03</pdfrwt>
<pdfrwt beam="2">0</pdfrwt>
<totfact> 0.55395396E+04</totfact>
</mgrwt>
</event>
<event>
 6    1  0.1273846E-001  0.3000000E+03  0.7818608E-02  0.1093470E+00
         21   -1    0    0  501  502  0.00000000000E+00  0.00000000000E+00  0.97328463467E+00  0.97328463467E+00  0.00000000000E+00 0. -1.
         13   -1    0    0    0    0 -0.00000000000E+00 -0.00000000000E+00 -0.10000000000E+04  0.10000000000E+04  0.00000000000E+00 0.  1.
    9000005    2    1    2  501    0  0.27310400242E+02 -0.14368857592E+02 -0.56363377037E+03  0.56448807460E+03  0.33818975281E+01 0.  0.
         13    1    3    3    0    0  0.11326749415E+02 -0.42637378781E+01 -0.23253160027E+03  0.23284634383E+03  0.00000000000E+00 0.  1.
          3    1    3    3  501    0  0.15983650828E+02 -0.10105119714E+02 -0.33110217010E+03  0.33164173077E+03  0.00000000000E+00 0.  1.
         -3    1    1    2    0  502 -0.27310400242E+02  0.14368857592E+02 -0.43539294500E+03  0.43648521004E+03  0.00000000000E+00 0. -1.
<mgrwt>
<rscale>  1 0.30000000E+03</rscale>
<asrwt>0</asrwt>
<pdfrwt beam="1">  1       21 0.35392243E-02 0.30000000E+03</pdfrwt>
<pdfrwt beam="2">0</pdfrwt>
<totfact> 0.51643618E+04</totfact>
</mgrwt>
</event>
<event>
 6    1  0.1273846E-001  0.3000000E+03  0.7818608E-02  0.1093470E+00
         21   -1    0    0  501  502  0.00000000000E+00  0.00000000000E+00  0.26593206124E+01  0.26593206124E+01  0.00000000000E+00 0. -1.
         13   -1    0    0    0    0 -0.00000000000E+00 -0.00000000000E+00 -0.10000000000E+04  0.10000000000E+04  0.00000000000E+00 0.  1.
    9000005    2    1    2  501    0 -0.33519014800E+02 -0.34507508619E+02 -0.67828888550E+03  0.68000108085E+03  0.33712399717E+01 0.  0.
         13    1    3    3    0    0 -0.90319131363E+01 -0.11302529949E+02 -0.21301309172E+03  0.21350386386E+03  0.00000000000E+00 0.  1.
          1    1    3    3  501    0 -0.24487101664E+02 -0.23204978669E+02 -0.46527579378E+03  0.46649721699E+03  0.00000000000E+00 0.  1.
         -3    1    1    2    0  502  0.33519014800E+02  0.34507508619E+02 -0.31905179389E+03  0.32265823976E+03  0.00000000000E+00 0. -1.
<mgrwt>
<rscale>  1 0.30000000E+03</rscale>
<asrwt>0</asrwt>
<pdfrwt beam="1">  1       21 0.96702772E-02 0.30000000E+03</pdfrwt>
<pdfrwt beam="2">0</pdfrwt>
<totfact> 0.91338389E+03</totfact>
</mgrwt>
</event>
<event>
 6    1  0.1273846E-001  0.3000000E+03  0.7818608E-02  0.1093470E+00
         21   -1    0    0  501  502  0.00000000000E+00  0.00000000000E+00  0.13999244527E+01  0.13999244527E+01  0.00000000000E+00 0. -1.
         13   -1    0    0    0    0 -0.00000000000E+00 -0.00000000000E+00 -0.10000000000E+04  0.10000000000E+04  0.00000000000E+00 0.  1.
    9000005    2    1    2  501    0  0.52953359513E+00  0.30651585166E+02 -0.78552647155E+03  0.78613227524E+03  0.35094988871E+01 0.  0.
         13    1    3    3    0    0  0.10013936472E+01  0.27596716433E+01 -0.66053787904E+02  0.66118994800E+02  0.00000000000E+00 0.  1.
          1    1    3    3  501    0 -0.47186005205E+00  0.27891913523E+02 -0.71947268365E+03  0.72001328044E+03  0.00000000000E+00 0.  1.
         -3    1    1    2    0  502 -0.52953359513E+00 -0.30651585166E+02 -0.21307360399E+03  0.21526764921E+03  0.00000000000E+00 0. -1.
<mgrwt>
<rscale>  1 0.30000000E+03</rscale>
<asrwt>0</asrwt>
<pdfrwt beam="1">  1       21 0.50906451E-02 0.30000000E+03</pdfrwt>
<pdfrwt beam="2">0</pdfrwt>
<totfact> 0.27935405E+04</totfact>
</mgrwt>
</event>
<event>
 6    1  0.1273846E-001  0.3000000E+03  0.7818608E-02  0.1093470E+00
         21   -1    0    0  501  502  0.00000000000E+00  0.00000000000E+00  0.68984001090E+01  0.68984001090E+01  0.00000000000E+00 0. -1.
         13   -1    0    0    0    0 -0.00000000000E+00 -0.00000000000E+00 -0.10000000000E+04  0.10000000000E+04  0.00000000000E+00 0.  1.
    9000005    2    1    2  501    0 -0.63919365568E+01 -0.43345292726E+02 -0.92421609285E+03  0.92525965725E+03  0.32211500504E+01 0.  0.
         13    1    3    3    0    0 -0.59746217326E+01 -0.40542314097E+02 -0.84544957336E+03  0.84644217548E+03  0.00000000000E+00 0.  1.
          1    1    3    3  501    0 -0.41731482420E+00 -0.28029786290E+01 -0.78766519482E+02  0.78817481767E+02  0.00000000000E+00 0.  1.
         -3    1    1    2    0  502  0.63919365568E+01  0.43345292726E+02 -0.68885507045E+02  0.81638742858E+02  0.00000000000E+00 0. -1.
<mgrwt>
<rscale>  1 0.30000000E+03</rscale>
<asrwt>0</asrwt>
<pdfrwt beam="1">  1       21 0.25085144E-01 0.30000000E+03</pdfrwt>
<pdfrwt beam="2">0</pdfrwt>
<totfact> 0.15492510E+03</totfact>
</mgrwt>
</event>
<event>
 6    1  0.1273846E-001  0.3000000E+03  0.7818608E-02  0.1093470E+00
         21   -1    0    0  501  502  0.00000000000E+00  0.00000000000E+00  0.11666564939E+01  0.11666564939E+01  0.00000000000E+00 0. -1.
         13   -1    0    0    0    0 -0.00000000000E+00 -0.00000000000E+00 -0.10000000000E+04  0.10000000000E+04  0.00000000000E+00 0.  1.
    9000005    2    1    2  501    0 -0.30754993660E+02  0.10664731385E+02 -0.64643510538E+03  0.64726819031E+03  0.42612900977E+01 0.  0.
         13    1    3    3    0    0 -0.21502455330E+02  0.80649002153E+01 -0.49033791902E+03  0.49087541497E+03  0.00000000000E+00 0.  1.
          1    1    3    3  501    0 -0.92525383304E+01  0.25998311694E+01 -0.15609718636E+03  0.15639277534E+03  0.00000000000E+00 0.  1.
         -1    1    1    2    0  502  0.30754993660E+02 -0.10664731385E+02 -0.35239823813E+03  0.35389846618E+03  0.00000000000E+00 0. -1.
<mgrwt>
<rscale>  1 0.30000000E+03</rscale>
<asrwt>0</asrwt>
<pdfrwt beam="1">  1       21 0.42423962E-02 0.30000000E+03</pdfrwt>
<pdfrwt beam="2">0</pdfrwt>
<totfact> 0.38074985E+04</totfact>
</mgrwt>
</event>
<event>
 6    1  0.1273846E-001  0.3000000E+03  0.7818608E-02  0.1093470E+00
         21   -1    0    0  501  502  0.00000000000E+00  0.00000000000E+00  0.30507539001E+01  0.30507539001E+01  0.00000000000E+00 0. -1.
         13   -1    0    0    0    0 -0.00000000000E+00 -0.00000000000E+00 -0.10000000000E+04  0.10000000000E+04  0.00000000000E+00 0.  1.
    9000005    2    1    2  501    0  0.33284106043E+01  0.40691645718E+02 -0.83623250972E+03  0.83722929057E+03  0.10891862111E+01 0.  0.
         13    1    3    3    0    0  0.10716762040E+01  0.78509167211E+01 -0.16319678522E+03  0.16338903296E+03  0.00000000000E+00 0.  1.
          3    1    3    3  501    0  0.22567344004E+01  0.32840728997E+02 -0.67303572450E+03  0.67384025762E+03  0.00000000000E+00 0.  1.
         -3    1    1    2    0  502 -0.33284106043E+01 -0.40691645718E+02 -0.16071673638E+03  0.16582146333E+03  0.00000000000E+00 0. -1.
<mgrwt>
<rscale>  1 0.30000000E+03</rscale>
<asrwt>0</asrwt>
<pdfrwt beam="1">  1       21 0.11093674E-01 0.30000000E+03</pdfrwt>
<pdfrwt beam="2">0</pdfrwt>
<totfact> 0.71421841E+03</totfact>
</mgrwt>
</event>
<event>
 6    1  0.1273846E-001  0.3000000E+03  0.7818608E-02  0.1093470E+00
         21   -1    0    0  501  502  0.00000000000E+00  0.00000000000E+00  0.26987845483E+01  0.26987845483E+01  0.00000000000E+00 0. -1.
         13   -1    0    0    0    0 -0.00000000000E+00 -0.00000000000E+00 -0.10000000000E+04  0.10000000000E+04  0.00000000000E+00 0.  1.
    9000005    2    1    2  501    0 -0.23931715664E+02  0.35157579598E+02 -0.21213590933E+03  0.21638247392E+03  0.33088632548E+01 0.  0.
         13    1    3    3    0    0 -0.20993990068E+01  0.18160558616E+01 -0.15905519847E+02  0.16145931274E+02  0.00000000000E+00 0.  1.
          1    1    3    3  501    0 -0.21832316657E+02  0.33341523737E+02 -0.19623038948E+03  0.20023654264E+03  0.00000000000E+00 0.  1.
         -1    1    1    2    0  502  0.23931715664E+02 -0.35157579598E+02 -0.78516530613E+03  0.78631631063E+03  0.00000000000E+00 0. -1.
<mgrwt>
<rscale>  1 0.30000000E+03</rscale>
<asrwt>0</asrwt>
<pdfrwt beam="1">  1       21 0.98137827E-02 0.30000000E+03</pdfrwt>
<pdfrwt beam="2">0</pdfrwt>
<totfact> 0.88969038E+03</totfact>
</mgrwt>
</event>
<event>
 6    1  0.1273846E-001  0.3000000E+03  0.7818608E-02  0.1093470E+00
         21   -1    0    0  501  502  0.00000000000E+00  0.00000000000E+00  0.23410085105E+01  0.23410085105E+01  0.00000000000E+00 0. -1.
         13   -1    0    0    0    0 -0.00000000000E+00 -0.00000000000E+00 -0.10000000000E+04  0.10000000000E+04  0.00000000000E+00 0.  1.
    9000005    2    1    2  501    0 -0.33449497359E+02  0.25680091202E+02 -0.74384214764E+03  0.74504482474E+03  0.35091762813E+01 0.  0.
         13    1    3    3    0    0 -0.24220131511E+02  0.17079409533E+02 -0.50254099373E+03  0.50341411520E+03  0.00000000000E+00 0.  1.
          1    1    3    3  501    0 -0.92293658486E+01  0.86006816700E+01 -0.24130115390E+03  0.24163070954E+03  0.00000000000E+00 0.  1.
         -3    1    1    2    0  502  0.33449497359E+02 -0.25680091202E+02 -0.25381684385E+03  0.25729618377E+03  0.00000000000E+00 0. -1.
<mgrwt>
<rscale>  1 0.30000000E+03</rscale>
<asrwt>0</asrwt>
<pdfrwt beam="1">  1       21 0.85127762E-02 0.30000000E+03</pdfrwt>
<pdfrwt beam="2">0</pdfrwt>
<totfact> 0.11450892E+04</totfact>
</mgrwt>
</event>
<event>
 6    1  0.1273846E-001  0.3000000E+03  0.7818608E-02  0.1093470E+00
         21   -1    0    0  501  502  0.00000000000E+00  0.00000000000E+00  0.17276701994E+01  0.17276701994E+01  0.00000000000E+00 0. -1.
         13   -1    0    0    0    0 -0.00000000000E+00 -0.00000000000E+00 -0.10000000000E+04  0.10000000000E+04  0.00000000000E+00 0.  1.
    9000005    2    1    2  501    0  0.25892545022E+02 -0.31858808171E+02 -0.47385465431E+03  0.47570551675E+03  0.84910373570E+01 0.  0.
         13    1    3    3    0    0  0.83232565768E+01 -0.65115477793E+01 -0.15625660815E+03  0.15661355128E+03  0.00000000000E+00 0.  1.
          3    1    3    3  501    0  0.17569288446E+02 -0.25347260391E+02 -0.31759804616E+03  0.31909196547E+03  0.00000000000E+00 0.  1.
         -3    1    1    2    0  502 -0.25892545022E+02  0.31858808171E+02 -0.52441767550E+03  0.52602215345E+03  0.00000000000E+00 0. -1.
<mgrwt>
<rscale>  1 0.30000000E+03</rscale>
<asrwt>0</asrwt>
<pdfrwt beam="1">  1       21 0.62824503E-02 0.30000000E+03</pdfrwt>
<pdfrwt beam="2">0</pdfrwt>
<totfact> 0.19463021E+04</totfact>
</mgrwt>
</event>
<event>
 6    1  0.1273846E-001  0.3000000E+03  0.7818608E-02  0.1093470E+00
         21   -1    0    0  501  502  0.00000000000E+00  0.00000000000E+00  0.26848313333E+01  0.26848313333E+01  0.00000000000E+00 0. -1.
         13   -1    0    0    0    0 -0.00000000000E+00 -0.00000000000E+00 -0.10000000000E+04  0.10000000000E+04  0.00000000000E+00 0.  1.
    9000005    2    1    2  501    0  0.36603712091E+02  0.23544536451E+02 -0.77030257764E+03  0.77153792259E+03  0.32446794459E+01 0.  0.
         13    1    3    3    0    0  0.27314027221E+02  0.16415011337E+02 -0.54400220121E+03  0.54493477005E+03  0.00000000000E+00 0.  1.
          1    1    3    3  501    0  0.92896848699E+01  0.71295251140E+01 -0.22630037642E+03  0.22660315254E+03  0.00000000000E+00 0.  1.
         -3    1    1    2    0  502 -0.36603712091E+02 -0.23544536451E+02 -0.22701259103E+03  0.23114690874E+03  0.00000000000E+00 0. -1.
<mgrwt>
<rscale>  1 0.30000000E+03</rscale>
<asrwt>0</asrwt>
<pdfrwt beam="1">  1       21 0.97630436E-02 0.30000000E+03</pdfrwt>
<pdfrwt beam="2">0</pdfrwt>
<totfact> 0.89795905E+03</totfact>
</mgrwt>
</event>
<event>
 6    1  0.1273846E-001  0.3000000E+03  0.7818608E-02  0.1093470E+00
         21   -1    0    0  501  502  0.00000000000E+00  0.00000000000E+00  0.21834712878E+01  0.21834712878E+01  0.00000000000E+00 0. -1.
         13   -1    0    0    0    0 -0.00000000000E+00 -0.00000000000E+00 -0.10000000000E+04  0.10000000000E+04  0.00000000000E+00 0.  1.
    9000005    2    1    2  501    0  0.27859614181E+01  0.41979868793E+02 -0.71604235694E+03  0.71728567410E+03  0.34655982432E+01 0.  0.
         13    1    3    3    0    0  0.34987051921E+01  0.33719075215E+02 -0.58452240231E+03  0.58550461636E+03  0.00000000000E+00 0.  1.
          1    1    3    3  501    0 -0.71274377395E+00  0.82607935778E+01 -0.13151995463E+03  0.13178105774E+03  0.00000000000E+00 0.  1.
         -1    1    1    2    0  502 -0.27859614181E+01 -0.41979868793E+02 -0.28177417177E+03  0.28489779719E+03  0.00000000000E+00 0. -1.
<mgrwt>
<rscale>  1 0.30000000E+03</rscale>
<asrwt>0</asrwt>
<pdfrwt beam="1">  1       21 0.79399123E-02 0.30000000E+03</pdfrwt>
<pdfrwt beam="2">0</pdfrwt>
<totfact> 0.12944115E+04</totfact>
</mgrwt>
</event>
<event>
 6    1  0.1273846E-001  0.3000000E+03  0.7818608E-02  0.1093470E+00
         21   -1    0    0  501  502  0.00000000000E+00  0.00000000000E+00  0.15948948967E+02  0.15948948967E+02  0.00000000000E+00 0. -1.
         13   -1    0    0    0    0 -0.00000000000E+00 -0.00000000000E+00 -0.10000000000E+04  0.10000000000E+04  0.00000000000E+00 0.  1.
    9000005    2    1    2  501    0  0.64201038135E+02 -0.47784884176E+02 -0.88494969372E+03  0.88856666027E+03  0.30952978622E+01 0.  0.
         13    1    3    3    0    0  0.14890468221E+01 -0.15886831213E+01 -0.27906469264E+02  0.27991287954E+02  0.00000000000E+00 0.  1.
          1    1    3    3  501    0  0.62711991313E+02 -0.46196201055E+02 -0.85704322446E+03  0.86057537231E+03  0.00000000000E+00 0.  1.
         -1    1    1    2    0  502 -0.64201038135E+02  0.47784884176E+02 -0.99101357313E+02  0.12738228870E+03  0.00000000000E+00 0. -1.
<mgrwt>
<rscale>  1 0.30000000E+03</rscale>
<asrwt>0</asrwt>
<pdfrwt beam="1">  1       21 0.57996300E-01 0.30000000E+03</pdfrwt>
<pdfrwt beam="2">0</pdfrwt>
<totfact> 0.27096884E+02</totfact>
</mgrwt>
</event>
<event>
 6    1  0.1273846E-001  0.3000000E+03  0.7818608E-02  0.1093470E+00
         21   -1    0    0  501  502  0.00000000000E+00  0.00000000000E+00  0.16861168137E+01  0.16861168137E+01  0.00000000000E+00 0. -1.
         13   -1    0    0    0    0 -0.00000000000E+00 -0.00000000000E+00 -0.10000000000E+04  0.10000000000E+04  0.00000000000E+00 0.  1.
    9000005    2    1    2  501    0 -0.20248916783E+01  0.39400787185E+02 -0.63595269912E+03  0.63718351060E+03  0.32354981301E+01 0.  0.
         13    1    3    3    0    0  0.60764017183E-01  0.13313693784E+02 -0.19344953533E+03  0.19390714493E+03  0.00000000000E+00 0.  1.
          3    1    3    3  501    0 -0.20856556955E+01  0.26087093401E+02 -0.44250316378E+03  0.44327636567E+03  0.00000000000E+00 0.  1.
         -1    1    1    2    0  502  0.20248916783E+01 -0.39400787185E+02 -0.36236118407E+03  0.36450260621E+03  0.00000000000E+00 0. -1.
<mgrwt>
<rscale>  1 0.30000000E+03</rscale>
<asrwt>0</asrwt>
<pdfrwt beam="1">  1       21 0.61313468E-02 0.30000000E+03</pdfrwt>
<pdfrwt beam="2">0</pdfrwt>
<totfact> 0.20298878E+04</totfact>
</mgrwt>
</event>
<event>
 6    1  0.1273846E-001  0.3000000E+03  0.7818608E-02  0.1093470E+00
         21   -1    0    0  501  502  0.00000000000E+00  0.00000000000E+00  0.10194008404E+01  0.10194008404E+01  0.00000000000E+00 0. -1.
         13   -1    0    0    0    0 -0.00000000000E+00 -0.00000000000E+00 -0.10000000000E+04  0.10000000000E+04  0.00000000000E+00 0.  1.
    9000005    2    1    2  501    0  0.27685764745E+01 -0.30486139313E+02 -0.60613311293E+03  0.60698105608E+03  0.95698558969E+01 0.  0.
         13    1    3    3    0    0  0.57321506562E+00 -0.22795812433E+02 -0.51248848431E+03  0.51299554012E+03  0.00000000000E+00 0.  1.
          1    1    3    3  501    0  0.21953614089E+01 -0.76903268805E+01 -0.93644628626E+02  0.93985515958E+02  0.00000000000E+00 0.  1.
         -3    1    1    2    0  502 -0.27685764745E+01  0.30486139313E+02 -0.39284748623E+03  0.39403834476E+03  0.00000000000E+00 0. -1.
<mgrwt>
<rscale>  1 0.30000000E+03</rscale>
<asrwt>0</asrwt>
<pdfrwt beam="1">  1       21 0.37069200E-02 0.30000000E+03</pdfrwt>
<pdfrwt beam="2">0</pdfrwt>
<totfact> 0.47785333E+04</totfact>
</mgrwt>
</event>
<event>
 6    1  0.1273846E-001  0.3000000E+03  0.7818608E-02  0.1093470E+00
         21   -1    0    0  501  502  0.00000000000E+00  0.00000000000E+00  0.18344590172E+01  0.18344590172E+01  0.00000000000E+00 0. -1.
         13   -1    0    0    0    0 -0.00000000000E+00 -0.00000000000E+00 -0.10000000000E+04  0.10000000000E+04  0.00000000000E+00 0.  1.
    9000005    2    1    2  501    0 -0.15351413624E+02  0.26907286778E+02 -0.84469601554E+03  0.84526957400E+03  0.31025912508E+01 0.  0.
         13    1    3    3    0    0 -0.13898763153E+02  0.23668855612E+02 -0.77044222599E+03  0.77093100465E+03  0.00000000000E+00 0.  1.
          3    1    3    3  501    0 -0.14526504712E+01  0.32384311652E+01 -0.74253789548E+02  0.74338569343E+02  0.00000000000E+00 0.  1.
         -1    1    1    2    0  502  0.15351413624E+02 -0.26907286778E+02 -0.15346952544E+03  0.15656488502E+03  0.00000000000E+00 0. -1.
<mgrwt>
<rscale>  1 0.30000000E+03</rscale>
<asrwt>0</asrwt>
<pdfrwt beam="1">  1       21 0.66707741E-02 0.30000000E+03</pdfrwt>
<pdfrwt beam="2">0</pdfrwt>
<totfact> 0.17543700E+04</totfact>
</mgrwt>
</event>
<event>
 6    1  0.1273846E-001  0.3000000E+03  0.7818608E-02  0.1093470E+00
         21   -1    0    0  501  502  0.00000000000E+00  0.00000000000E+00  0.23950992900E+01  0.23950992900E+01  0.00000000000E+00 0. -1.
         13   -1    0    0    0    0 -0.00000000000E+00 -0.00000000000E+00 -0.10000000000E+04  0.10000000000E+04  0.00000000000E+00 0.  1.
    9000005    2    1    2  501    0 -0.45032753747E+02 -0.19294561401E+01 -0.69287798676E+03  0.69435262852E+03  0.37411881286E+01 0.  0.
         13    1    3    3    0    0 -0.16352023792E+02 -0.18904192451E+01 -0.27378725299E+03  0.27428164770E+03  0.00000000000E+00 0.  1.
          1    1    3    3  501    0 -0.28680729954E+02 -0.39036895051E-01 -0.41909073378E+03  0.42007098082E+03  0.00000000000E+00 0.  1.
         -3    1    1    2    0  502  0.45032753747E+02  0.19294561401E+01 -0.30472691395E+03  0.30804247077E+03  0.00000000000E+00 0. -1.
<mgrwt>
<rscale>  1 0.30000000E+03</rscale>
<asrwt>0</asrwt>
<pdfrwt beam="1">  1       21 0.87094703E-02 0.30000000E+03</pdfrwt>
<pdfrwt beam="2">0</pdfrwt>
<totfact> 0.10998378E+04</totfact>
</mgrwt>
</event>
<event>
 6    1  0.1273846E-001  0.3000000E+03  0.7818608E-02  0.1093470E+00
         21   -1    0    0  501  502  0.00000000000E+00  0.00000000000E+00  0.90285522030E+01  0.90285522030E+01  0.00000000000E+00 0. -1.
         13   -1    0    0    0    0 -0.00000000000E+00 -0.00000000000E+00 -0.10000000000E+04  0.10000000000E+04  0.00000000000E+00 0.  1.
    9000005    2    1    2  501    0 -0.51812539733E+02  0.57509108251E+02 -0.78798494916E+03  0.79178363182E+03  0.30335955939E+01 0.  0.
         13    1    3    3    0    0 -0.32698577848E+02  0.36506860756E+02 -0.48387117778E+03  0.48634685623E+03  0.00000000000E+00 0.  1.
          3    1    3    3  501    0 -0.19113961885E+02  0.21002247495E+02 -0.30411377138E+03  0.30543677559E+03  0.00000000000E+00 0.  1.
         -3    1    1    2    0  502  0.51812539733E+02 -0.57509108251E+02 -0.20298649864E+03  0.21724492039E+03  0.00000000000E+00 0. -1.
<mgrwt>
<rscale>  1 0.30000000E+03</rscale>
<asrwt>0</asrwt>
<pdfrwt beam="1">  1       21 0.32831168E-01 0.30000000E+03</pdfrwt>
<pdfrwt beam="2">0</pdfrwt>
<totfact> 0.90661762E+02</totfact>
</mgrwt>
</event>
<event>
 6    1  0.1273846E-001  0.3000000E+03  0.7818608E-02  0.1093470E+00
         21   -1    0    0  501  502  0.00000000000E+00  0.00000000000E+00  0.11270566582E+02  0.11270566582E+02  0.00000000000E+00 0. -1.
         13   -1    0    0    0    0 -0.00000000000E+00 -0.00000000000E+00 -0.10000000000E+04  0.10000000000E+04  0.00000000000E+00 0.  1.
    9000005    2    1    2  501    0 -0.24234156568E+02  0.32493362252E+02 -0.96163087935E+03  0.96251152058E+03  0.71670206539E+01 0.  0.
         13    1    3    3    0    0 -0.16924583465E+02  0.26471298334E+02 -0.78237719595E+03  0.78300782110E+03  0.00000000000E+00 0.  1.
          1    1    3    3  501    0 -0.73095731028E+01  0.60220639173E+01 -0.17925368340E+03  0.17950369947E+03  0.00000000000E+00 0.  1.
         -1    1    1    2    0  502  0.24234156568E+02 -0.32493362252E+02 -0.27098554066E+02  0.48759046006E+02  0.00000000000E+00 0. -1.
<mgrwt>
<rscale>  1 0.30000000E+03</rscale>
<asrwt>0</asrwt>
<pdfrwt beam="1">  1       21 0.40983965E-01 0.30000000E+03</pdfrwt>
<pdfrwt beam="2">0</pdfrwt>
<totfact> 0.57406654E+02</totfact>
</mgrwt>
</event>
<event>
 6    1  0.1273846E-001  0.3000000E+03  0.7818608E-02  0.1093470E+00
         21   -1    0    0  501  502  0.00000000000E+00  0.00000000000E+00  0.46234727036E+01  0.46234727036E+01  0.00000000000E+00 0. -1.
         13   -1    0    0    0    0 -0.00000000000E+00 -0.00000000000E+00 -0.10000000000E+04  0.10000000000E+04  0.00000000000E+00 0.  1.
    9000005    2    1    2  501    0  0.31329952497E+02  0.12646397005E+02 -0.93356055789E+03  0.93417695856E+03  0.31268811412E+01 0.  0.
         13    1    3    3    0    0  0.42665273175E+01  0.92116956156E+00 -0.14214783066E+03  0.14221482894E+03  0.00000000000E+00 0.  1.
          1    1    3    3  501    0  0.27063425179E+02  0.11725227443E+02 -0.79141272723E+03  0.79196212963E+03  0.00000000000E+00 0.  1.
         -3    1    1    2    0  502 -0.31329952497E+02 -0.12646397005E+02 -0.61815969409E+02  0.70446514141E+02  0.00000000000E+00 0. -1.
<mgrwt>
<rscale>  1 0.30000000E+03</rscale>
<asrwt>0</asrwt>
<pdfrwt beam="1">  1       21 0.16812663E-01 0.30000000E+03</pdfrwt>
<pdfrwt beam="2">0</pdfrwt>
<totfact> 0.33298848E+03</totfact>
</mgrwt>
</event>
<event>
 6    1  0.1273846E-001  0.3000000E+03  0.7818608E-02  0.1093470E+00
         21   -1    0    0  501  502  0.00000000000E+00  0.00000000000E+00  0.11211323826E+01  0.11211323826E+01  0.00000000000E+00 0. -1.
         13   -1    0    0    0    0 -0.00000000000E+00 -0.00000000000E+00 -0.10000000000E+04  0.10000000000E+04  0.00000000000E+00 0.  1.
    9000005    2    1    2  501    0  0.32805334009E+02 -0.20907833241E+01 -0.42980226198E+03  0.43109591855E+03  0.57571935968E+01 0.  0.
         13    1    3    3    0    0  0.32449800456E+02 -0.13340595880E+01 -0.41422392815E+03  0.41549516473E+03  0.00000000000E+00 0.  1.
          3    1    3    3  501    0  0.35553355300E+00 -0.75672373604E+00 -0.15578333830E+02  0.15600753822E+02  0.00000000000E+00 0.  1.
         -3    1    1    2    0  502 -0.32805334009E+02  0.20907833241E+01 -0.56907660564E+03  0.57002521383E+03  0.00000000000E+00 0. -1.
<mgrwt>
<rscale>  1 0.30000000E+03</rscale>
<asrwt>0</asrwt>
<pdfrwt beam="1">  1       21 0.40768536E-02 0.30000000E+03</pdfrwt>
<pdfrwt beam="2">0</pdfrwt>
<totfact> 0.40720467E+04</totfact>
</mgrwt>
</event>
<event>
 6    1  0.1273846E-001  0.3000000E+03  0.7818608E-02  0.1093470E+00
         21   -1    0    0  501  502  0.00000000000E+00  0.00000000000E+00  0.24032264143E+01  0.24032264143E+01  0.00000000000E+00 0. -1.
         13   -1    0    0    0    0 -0.00000000000E+00 -0.00000000000E+00 -0.10000000000E+04  0.10000000000E+04  0.00000000000E+00 0.  1.
    9000005    2    1    2  501    0  0.30009489058E+02 -0.18249920557E+02 -0.84814612107E+03  0.84888082879E+03  0.36317727750E+01 0.  0.
         13    1    3    3    0    0  0.25582603264E+02 -0.15512880646E+02 -0.68814486528E+03  0.68879494385E+03  0.00000000000E+00 0.  1.
          3    1    3    3  501    0  0.44268857935E+01 -0.27370399110E+01 -0.16000125579E+03  0.16008588494E+03  0.00000000000E+00 0.  1.
         -3    1    1    2    0  502 -0.30009489058E+02  0.18249920557E+02 -0.14945065252E+03  0.15352239762E+03  0.00000000000E+00 0. -1.
<mgrwt>
<rscale>  1 0.30000000E+03</rscale>
<asrwt>0</asrwt>
<pdfrwt beam="1">  1       21 0.87390236E-02 0.30000000E+03</pdfrwt>
<pdfrwt beam="2">0</pdfrwt>
<totfact> 0.10932745E+04</totfact>
</mgrwt>
</event>
<event>
 6    1  0.1273846E-001  0.3000000E+03  0.7818608E-02  0.1093470E+00
         21   -1    0    0  501  502  0.00000000000E+00  0.00000000000E+00  0.19231201348E+01  0.19231201348E+01  0.00000000000E+00 0. -1.
         13   -1    0    0    0    0 -0.00000000000E+00 -0.00000000000E+00 -0.10000000000E+04  0.10000000000E+04  0.00000000000E+00 0.  1.
    9000005    2    1    2  501    0  0.19958154987E+02  0.38980777231E+02 -0.50265160460E+03  0.50456607302E+03  0.32338044199E+01 0.  0.
         13    1    3    3    0    0  0.12119775550E+02  0.21913822863E+02 -0.27116844150E+03  0.27232228748E+03  0.00000000000E+00 0.  1.
          1    1    3    3  501    0  0.78383794371E+01  0.17066954367E+02 -0.23148316310E+03  0.23224378554E+03  0.00000000000E+00 0.  1.
         -3    1    1    2    0  502 -0.19958154987E+02 -0.38980777231E+02 -0.49542527526E+03  0.49735704711E+03  0.00000000000E+00 0. -1.
<mgrwt>
<rscale>  1 0.30000000E+03</rscale>
<asrwt>0</asrwt>
<pdfrwt beam="1">  1       21 0.69931789E-02 0.30000000E+03</pdfrwt>
<pdfrwt beam="2">0</pdfrwt>
<totfact> 0.16162685E+04</totfact>
</mgrwt>
</event>
<event>
 6    1  0.1273846E-001  0.3000000E+03  0.7818608E-02  0.1093470E+00
         21   -1    0    0  501  502  0.00000000000E+00  0.00000000000E+00  0.22854222570E+01  0.22854222570E+01  0.00000000000E+00 0. -1.
         13   -1    0    0    0    0 -0.00000000000E+00 -0.00000000000E+00 -0.10000000000E+04  0.10000000000E+04  0.00000000000E+00 0.  1.
    9000005    2    1    2  501    0  0.35890749915E+02  0.11292385702E+02 -0.80753422302E+03  0.80841889284E+03  0.37310927932E+01 0.  0.
         13    1    3    3    0    0  0.98102486217E+01  0.15797175969E+01 -0.22985186045E+03  0.23006654306E+03  0.00000000000E+00 0.  1.
          3    1    3    3  501    0  0.26080501293E+02  0.97126681053E+01 -0.57768236257E+03  0.57835234978E+03  0.00000000000E+00 0.  1.
         -3    1    1    2    0  502 -0.35890749915E+02 -0.11292385702E+02 -0.19018035473E+03  0.19386652942E+03  0.00000000000E+00 0. -1.
<mgrwt>
<rscale>  1 0.30000000E+03</rscale>
<asrwt>0</asrwt>
<pdfrwt beam="1">  1       21 0.83106439E-02 0.30000000E+03</pdfrwt>
<pdfrwt beam="2">0</pdfrwt>
<totfact> 0.11946181E+04</totfact>
</mgrwt>
</event>
<event>
 6    1  0.1273846E-001  0.3000000E+03  0.7818608E-02  0.1093470E+00
         21   -1    0    0  501  502  0.00000000000E+00  0.00000000000E+00  0.19085929940E+01  0.19085929940E+01  0.00000000000E+00 0. -1.
         13   -1    0    0    0    0 -0.00000000000E+00 -0.00000000000E+00 -0.10000000000E+04  0.10000000000E+04  0.00000000000E+00 0.  1.
    9000005    2    1    2  501    0 -0.35104410668E+02 -0.25854625141E+02 -0.48124937663E+03  0.48323098055E+03  0.32305982553E+01 0.  0.
         13    1    3    3    0    0 -0.15464394141E+01 -0.20363060824E+01 -0.25940380754E+02  0.26066096198E+02  0.00000000000E+00 0.  1.
          1    1    3    3  501    0 -0.33557971254E+02 -0.23818319059E+02 -0.45530899588E+03  0.45716488435E+03  0.00000000000E+00 0.  1.
         -3    1    1    2    0  502  0.35104410668E+02  0.25854625141E+02 -0.51684203037E+03  0.51867761244E+03  0.00000000000E+00 0. -1.
<mgrwt>
<rscale>  1 0.30000000E+03</rscale>
<asrwt>0</asrwt>
<pdfrwt beam="1">  1       21 0.69403528E-02 0.30000000E+03</pdfrwt>
<pdfrwt beam="2">0</pdfrwt>
<totfact> 0.16377304E+04</totfact>
</mgrwt>
</event>
<event>
 6    1  0.1273846E-001  0.3000000E+03  0.7818608E-02  0.1093470E+00
         21   -1    0    0  501  502  0.00000000000E+00  0.00000000000E+00  0.31262423400E+01  0.31262423400E+01  0.00000000000E+00 0. -1.
         13   -1    0    0    0    0 -0.00000000000E+00 -0.00000000000E+00 -0.10000000000E+04  0.10000000000E+04  0.00000000000E+00 0.  1.
    9000005    2    1    2  501    0  0.39432156584E+02 -0.29304538123E+00 -0.85380932892E+03  0.85472674228E+03  0.35288755366E+01 0.  0.
         13    1    3    3    0    0  0.81137479134E+01  0.13238342085E+01 -0.18512471154E+03  0.18530716194E+03  0.00000000000E+00 0.  1.
          1    1    3    3  501    0  0.31318408671E+02 -0.16168795897E+01 -0.66868461738E+03  0.66941958034E+03  0.00000000000E+00 0.  1.
         -3    1    1    2    0  502 -0.39432156584E+02  0.29304538123E+00 -0.14306442874E+03  0.14839950006E+03  0.00000000000E+00 0. -1.
<mgrwt>
<rscale>  1 0.30000000E+03</rscale>
<asrwt>0</asrwt>
<pdfrwt beam="1">  1       21 0.11368178E-01 0.30000000E+03</pdfrwt>
<pdfrwt beam="2">0</pdfrwt>
<totfact> 0.68343476E+03</totfact>
</mgrwt>
</event>
<event>
 6    1  0.1273846E-001  0.3000000E+03  0.7818608E-02  0.1093470E+00
         21   -1    0    0  501  502  0.00000000000E+00  0.00000000000E+00  0.12951435984E+01  0.12951435984E+01  0.00000000000E+00 0. -1.
         13   -1    0    0    0    0 -0.00000000000E+00 -0.00000000000E+00 -0.10000000000E+04  0.10000000000E+04  0.00000000000E+00 0.  1.
    9000005    2    1    2  501    0 -0.26160324105E+02  0.17383158807E+02 -0.74253449358E+03  0.74320641553E+03  0.34300383022E+01 0.  0.
         13    1    3    3    0    0 -0.19790855189E+01  0.75967288984E+00 -0.35485156449E+02  0.35548420649E+02  0.00000000000E+00 0.  1.
          3    1    3    3  501    0 -0.24181238586E+02  0.16623485917E+02 -0.70704933713E+03  0.70765799488E+03  0.00000000000E+00 0.  1.
         -3    1    1    2    0  502  0.26160324105E+02 -0.17383158807E+02 -0.25617036282E+03  0.25808872807E+03  0.00000000000E+00 0. -1.
<mgrwt>
<rscale>  1 0.30000000E+03</rscale>
<asrwt>0</asrwt>
<pdfrwt beam="1">  1       21 0.47096230E-02 0.30000000E+03</pdfrwt>
<pdfrwt beam="2">0</pdfrwt>
<totfact> 0.31893225E+04</totfact>
</mgrwt>
</event>
<event>
 6    1  0.1273846E-001  0.3000000E+03  0.7818608E-02  0.1093470E+00
         21   -1    0    0  501  502  0.00000000000E+00  0.00000000000E+00  0.18198346542E+01  0.18198346542E+01  0.00000000000E+00 0. -1.
         13   -1    0    0    0    0 -0.00000000000E+00 -0.00000000000E+00 -0.10000000000E+04  0.10000000000E+04  0.00000000000E+00 0.  1.
    9000005    2    1    2  501    0 -0.90783195751E+01 -0.41413048133E+02 -0.46924583702E+03  0.47118909664E+03  0.54820426579E+01 0.  0.
         13    1    3    3    0    0 -0.12505440257E+01 -0.18222278309E+02 -0.20505216784E+03  0.20586404937E+03  0.00000000000E+00 0.  1.
          3    1    3    3  501    0 -0.78277755494E+01 -0.23190769823E+02 -0.26419366918E+03  0.26532504727E+03  0.00000000000E+00 0.  1.
         -1    1    1    2    0  502  0.90783195751E+01  0.41413048133E+02 -0.52893432832E+03  0.53063073801E+03  0.00000000000E+00 0. -1.
<mgrwt>
<rscale>  1 0.30000000E+03</rscale>
<asrwt>0</asrwt>
<pdfrwt beam="1">  1       21 0.66175945E-02 0.30000000E+03</pdfrwt>
<pdfrwt beam="2">0</pdfrwt>
<totfact> 0.17788848E+04</totfact>
</mgrwt>
</event>
<event>
 6    1  0.1273846E-001  0.3000000E+03  0.7818608E-02  0.1093470E+00
         21   -1    0    0  501  502  0.00000000000E+00  0.00000000000E+00  0.52791755757E+01  0.52791755757E+01  0.00000000000E+00 0. -1.
         13   -1    0    0    0    0 -0.00000000000E+00 -0.00000000000E+00 -0.10000000000E+04  0.10000000000E+04  0.00000000000E+00 0.  1.
    9000005    2    1    2  501    0 -0.51069549260E+02  0.20311951005E+02 -0.82599863150E+03  0.82783100681E+03  0.31244792659E+01 0.  0.
         13    1    3    3    0    0 -0.45635384006E+02  0.17733902357E+02 -0.72126326725E+03  0.72292308045E+03  0.00000000000E+00 0.  1.
          3    1    3    3  501    0 -0.54341652545E+01  0.25780486478E+01 -0.10473536425E+03  0.10490792636E+03  0.00000000000E+00 0.  1.
         -3    1    1    2    0  502  0.51069549260E+02 -0.20311951005E+02 -0.16872219292E+03  0.17744816877E+03  0.00000000000E+00 0. -1.
<mgrwt>
<rscale>  1 0.30000000E+03</rscale>
<asrwt>0</asrwt>
<pdfrwt beam="1">  1       21 0.19197043E-01 0.30000000E+03</pdfrwt>
<pdfrwt beam="2">0</pdfrwt>
<totfact> 0.25938318E+03</totfact>
</mgrwt>
</event>
<event>
 6    1  0.1273846E-001  0.3000000E+03  0.7818608E-02  0.1093470E+00
         21   -1    0    0  501  502  0.00000000000E+00  0.00000000000E+00  0.32333572815E+01  0.32333572815E+01  0.00000000000E+00 0. -1.
         13   -1    0    0    0    0 -0.00000000000E+00 -0.00000000000E+00 -0.10000000000E+04  0.10000000000E+04  0.00000000000E+00 0.  1.
    9000005    2    1    2  501    0  0.32591798161E+02  0.44130610672E+02 -0.62906636184E+03  0.63146295412E+03  0.33524210450E+01 0.  0.
         13    1    3    3    0    0  0.22786442360E+02  0.30840622714E+02 -0.42154935509E+03  0.42328976451E+03  0.00000000000E+00 0.  1.
          3    1    3    3  501    0  0.98053558007E+01  0.13289987958E+02 -0.20751700675E+03  0.20817318961E+03  0.00000000000E+00 0.  1.
         -1    1    1    2    0  502 -0.32591798161E+02 -0.44130610672E+02 -0.36770028088E+03  0.37177040316E+03  0.00000000000E+00 0. -1.
<mgrwt>
<rscale>  1 0.30000000E+03</rscale>
<asrwt>0</asrwt>
<pdfrwt beam="1">  1       21 0.11757688E-01 0.30000000E+03</pdfrwt>
<pdfrwt beam="2">0</pdfrwt>
<totfact> 0.64305814E+03</totfact>
</mgrwt>
</event>
<event>
 6    1  0.1273846E-001  0.3000000E+03  0.7818608E-02  0.1093470E+00
         21   -1    0    0  501  502  0.00000000000E+00  0.00000000000E+00  0.15025787884E+01  0.15025787884E+01  0.00000000000E+00 0. -1.
         13   -1    0    0    0    0 -0.00000000000E+00 -0.00000000000E+00 -0.10000000000E+04  0.10000000000E+04  0.00000000000E+00 0.  1.
    9000005    2    1    2  501    0  0.32877903499E+02 -0.16824377409E+02 -0.64333560035E+03  0.64442564700E+03  0.63010814259E+01 0.  0.
         13    1    3    3    0    0  0.12013364913E+02 -0.59854060386E+01 -0.28839836411E+03  0.28871051668E+03  0.00000000000E+00 0.  1.
          1    1    3    3  501    0  0.20864538586E+02 -0.10838971371E+02 -0.35493723624E+03  0.35571513032E+03  0.00000000000E+00 0.  1.
         -1    1    1    2    0  502 -0.32877903499E+02  0.16824377409E+02 -0.35516182086E+03  0.35707693178E+03  0.00000000000E+00 0. -1.
<mgrwt>
<rscale>  1 0.30000000E+03</rscale>
<asrwt>0</asrwt>
<pdfrwt beam="1">  1       21 0.54639344E-02 0.30000000E+03</pdfrwt>
<pdfrwt beam="2">0</pdfrwt>
<totfact> 0.24751733E+04</totfact>
</mgrwt>
</event>
<event>
 6    1  0.1273846E-001  0.3000000E+03  0.7818608E-02  0.1093470E+00
         21   -1    0    0  501  502  0.00000000000E+00  0.00000000000E+00  0.11420903727E+01  0.11420903727E+01  0.00000000000E+00 0. -1.
         13   -1    0    0    0    0 -0.00000000000E+00 -0.00000000000E+00 -0.10000000000E+04  0.10000000000E+04  0.00000000000E+00 0.  1.
    9000005    2    1    2  501    0 -0.25605174948E+02  0.20079404430E+02 -0.62937603783E+03  0.63023015870E+03  0.41289806163E+01 0.  0.
         13    1    3    3    0    0 -0.10016689863E+02  0.57384152190E+01 -0.24272967780E+03  0.24300403283E+03  0.00000000000E+00 0.  1.
          1    1    3    3  501    0 -0.15588485085E+02  0.14340989211E+02 -0.38664636002E+03  0.38722612587E+03  0.00000000000E+00 0.  1.
         -1    1    1    2    0  502  0.25605174948E+02 -0.20079404430E+02 -0.36948187180E+03  0.37091193167E+03  0.00000000000E+00 0. -1.
<mgrwt>
<rscale>  1 0.30000000E+03</rscale>
<asrwt>0</asrwt>
<pdfrwt beam="1">  1       21 0.41530647E-02 0.30000000E+03</pdfrwt>
<pdfrwt beam="2">0</pdfrwt>
<totfact> 0.39468127E+04</totfact>
</mgrwt>
</event>
<event>
 6    1  0.1273846E-001  0.3000000E+03  0.7818608E-02  0.1093470E+00
         21   -1    0    0  501  502  0.00000000000E+00  0.00000000000E+00  0.66348428929E+01  0.66348428929E+01  0.00000000000E+00 0. -1.
         13   -1    0    0    0    0 -0.00000000000E+00 -0.00000000000E+00 -0.10000000000E+04  0.10000000000E+04  0.00000000000E+00 0.  1.
    9000005    2    1    2  501    0  0.28505184472E+02 -0.35432777047E+02 -0.91408528097E+03  0.91523831128E+03  0.64217063050E+01 0.  0.
         13    1    3    3    0    0  0.42363312013E-01 -0.18247264953E+01 -0.28250583187E+02  0.28309483779E+02  0.00000000000E+00 0.  1.
          1    1    3    3  501    0  0.28462821160E+02 -0.33608050551E+02 -0.88583469779E+03  0.88692882750E+03  0.00000000000E+00 0.  1.
         -1    1    1    2    0  502 -0.28505184472E+02  0.35432777047E+02 -0.79279876135E+02  0.91396531614E+02  0.00000000000E+00 0. -1.
<mgrwt>
<rscale>  1 0.30000000E+03</rscale>
<asrwt>0</asrwt>
<pdfrwt beam="1">  1       21 0.24126752E-01 0.30000000E+03</pdfrwt>
<pdfrwt beam="2">0</pdfrwt>
<totfact> 0.16716820E+03</totfact>
</mgrwt>
</event>
<event>
 6    1  0.1273846E-001  0.3000000E+03  0.7818608E-02  0.1093470E+00
         21   -1    0    0  501  502  0.00000000000E+00  0.00000000000E+00  0.26680195688E+01  0.26680195688E+01  0.00000000000E+00 0. -1.
         13   -1    0    0    0    0 -0.00000000000E+00 -0.00000000000E+00 -0.10000000000E+04  0.10000000000E+04  0.00000000000E+00 0.  1.
    9000005    2    1    2  501    0  0.30228927013E+02  0.19722559765E+02 -0.85713695233E+03  0.85790126477E+03  0.28385989365E+01 0.  0.
         13    1    3    3    0    0  0.27310179314E+01  0.18035731533E+01 -0.60447155175E+02  0.60535691157E+02  0.00000000000E+00 0.  1.
          3    1    3    3  501    0  0.27497909082E+02  0.17918986612E+02 -0.79668979716E+03  0.79736557361E+03  0.00000000000E+00 0.  1.
         -1    1    1    2    0  502 -0.30228927013E+02 -0.19722559765E+02 -0.14019502810E+03  0.14476675480E+03  0.00000000000E+00 0. -1.
<mgrwt>
<rscale>  1 0.30000000E+03</rscale>
<asrwt>0</asrwt>
<pdfrwt beam="1">  1       21 0.97019098E-02 0.30000000E+03</pdfrwt>
<pdfrwt beam="2">0</pdfrwt>
<totfact> 0.90807887E+03</totfact>
</mgrwt>
</event>
<event>
 6    1  0.1273846E-001  0.3000000E+03  0.7818608E-02  0.1093470E+00
         21   -1    0    0  501  502  0.00000000000E+00  0.00000000000E+00  0.13037681037E+01  0.13037681037E+01  0.00000000000E+00 0. -1.
         13   -1    0    0    0    0 -0.00000000000E+00 -0.00000000000E+00 -0.10000000000E+04  0.10000000000E+04  0.00000000000E+00 0.  1.
    9000005    2    1    2  501    0 -0.34772448522E+02  0.65489692131E+01 -0.59543386837E+03  0.59649202665E+03  0.30387649933E+01 0.  0.
         13    1    3    3    0    0 -0.10043114599E+02  0.61267238902E+00 -0.17805027499E+03  0.17833434874E+03  0.00000000000E+00 0.  1.
          3    1    3    3  501    0 -0.24729333923E+02  0.59362968241E+01 -0.41738359338E+03  0.41815767791E+03  0.00000000000E+00 0.  1.
         -1    1    1    2    0  502  0.34772448522E+02 -0.65489692131E+01 -0.40326236353E+03  0.40481174145E+03  0.00000000000E+00 0. -1.
<mgrwt>
<rscale>  1 0.30000000E+03</rscale>
<asrwt>0</asrwt>
<pdfrwt beam="1">  1       21 0.47409849E-02 0.30000000E+03</pdfrwt>
<pdfrwt beam="2">0</pdfrwt>
<totfact> 0.31535279E+04</totfact>
</mgrwt>
</event>
<event>
 6    1  0.1273846E-001  0.3000000E+03  0.7818608E-02  0.1093470E+00
         21   -1    0    0  501  502  0.00000000000E+00  0.00000000000E+00  0.37719149115E+01  0.37719149115E+01  0.00000000000E+00 0. -1.
         13   -1    0    0    0    0 -0.00000000000E+00 -0.00000000000E+00 -0.10000000000E+04  0.10000000000E+04  0.00000000000E+00 0.  1.
    9000005    2    1    2  501    0  0.24775216578E+02  0.48915170888E+02 -0.72381115256E+03  0.72589156219E+03  0.30773675705E+01 0.  0.
         13    1    3    3    0    0  0.43495796047E+01  0.85407408449E+01 -0.14272418220E+03  0.14304564055E+03  0.00000000000E+00 0.  1.
          3    1    3    3  501    0  0.20425636973E+02  0.40374430043E+02 -0.58108697037E+03  0.58284592164E+03  0.00000000000E+00 0.  1.
         -1    1    1    2    0  502 -0.24775216578E+02 -0.48915170888E+02 -0.27241693253E+03  0.27788035272E+03  0.00000000000E+00 0. -1.
<mgrwt>
<rscale>  1 0.30000000E+03</rscale>
<asrwt>0</asrwt>
<pdfrwt beam="1">  1       21 0.13716083E-01 0.30000000E+03</pdfrwt>
<pdfrwt beam="2">0</pdfrwt>
<totfact> 0.48559088E+03</totfact>
</mgrwt>
</event>
<event>
 6    1  0.1273846E-001  0.3000000E+03  0.7818608E-02  0.1093470E+00
         21   -1    0    0  501  502  0.00000000000E+00  0.00000000000E+00  0.15037762573E+01  0.15037762573E+01  0.00000000000E+00 0. -1.
         13   -1    0    0    0    0 -0.00000000000E+00 -0.00000000000E+00 -0.10000000000E+04  0.10000000000E+04  0.00000000000E+00 0.  1.
    9000005    2    1    2  501    0 -0.19478725867E+02 -0.26282233567E+02 -0.76686157334E+03  0.76757047843E+03  0.41940597632E+01 0.  0.
         13    1    3    3    0    0 -0.61868192928E+01 -0.64758168679E+01 -0.24607832148E+03  0.24624125008E+03  0.00000000000E+00 0.  1.
          1    1    3    3  501    0 -0.13291906574E+02 -0.19806416700E+02 -0.52078325186E+03  0.52132922836E+03  0.00000000000E+00 0.  1.
         -1    1    1    2    0  502  0.19478725867E+02  0.26282233567E+02 -0.23163465040E+03  0.23393329782E+03  0.00000000000E+00 0. -1.
<mgrwt>
<rscale>  1 0.30000000E+03</rscale>
<asrwt>0</asrwt>
<pdfrwt beam="1">  1       21 0.54682888E-02 0.30000000E+03</pdfrwt>
<pdfrwt beam="2">0</pdfrwt>
<totfact> 0.24717962E+04</totfact>
</mgrwt>
</event>
<event>
 6    1  0.1273846E-001  0.3000000E+03  0.7818608E-02  0.1093470E+00
         21   -1    0    0  501  502  0.00000000000E+00  0.00000000000E+00  0.32748436046E+01  0.32748436046E+01  0.00000000000E+00 0. -1.
         13   -1    0    0    0    0 -0.00000000000E+00 -0.00000000000E+00 -0.10000000000E+04  0.10000000000E+04  0.00000000000E+00 0.  1.
    9000005    2    1    2  501    0 -0.81509241830E+01 -0.34234464095E+02 -0.89380322243E+03  0.89450278566E+03  0.35492311643E+01 0.  0.
         13    1    3    3    0    0 -0.77665276111E-01 -0.32356192074E+00 -0.31203493763E+01  0.31380414978E+01  0.00000000000E+00 0.  1.
          3    1    3    3  501    0 -0.80732589069E+01 -0.33910902175E+02 -0.89068287305E+03  0.89136474417E+03  0.00000000000E+00 0.  1.
         -3    1    1    2    0  502  0.81509241830E+01  0.34234464095E+02 -0.10292193397E+03  0.10877205794E+03  0.00000000000E+00 0. -1.
<mgrwt>
<rscale>  1 0.30000000E+03</rscale>
<asrwt>0</asrwt>
<pdfrwt beam="1">  1       21 0.11908547E-01 0.30000000E+03</pdfrwt>
<pdfrwt beam="2">0</pdfrwt>
<totfact> 0.62837260E+03</totfact>
</mgrwt>
</event>
<event>
 6    1  0.1273846E-001  0.3000000E+03  0.7818608E-02  0.1093470E+00
         21   -1    0    0  501  502  0.00000000000E+00  0.00000000000E+00  0.18042144574E+01  0.18042144574E+01  0.00000000000E+00 0. -1.
         13   -1    0    0    0    0 -0.00000000000E+00 -0.00000000000E+00 -0.10000000000E+04  0.10000000000E+04  0.00000000000E+00 0.  1.
    9000005    2    1    2  501    0 -0.33054662643E+02  0.14223487260E+01 -0.81281393818E+03  0.81349313372E+03  0.31538397724E+01 0.  0.
         13    1    3    3    0    0 -0.14941026081E+02  0.10848897367E+01 -0.33133930007E+03  0.33167776985E+03  0.00000000000E+00 0.  1.
          3    1    3    3  501    0 -0.18113636562E+02  0.33745898936E+00 -0.48147463812E+03  0.48181536387E+03  0.00000000000E+00 0.  1.
         -3    1    1    2    0  502  0.33054662643E+02 -0.14223487260E+01 -0.18538184736E+03  0.18831108074E+03  0.00000000000E+00 0. -1.
<mgrwt>
<rscale>  1 0.30000000E+03</rscale>
<asrwt>0</asrwt>
<pdfrwt beam="1">  1       21 0.65607937E-02 0.30000000E+03</pdfrwt>
<pdfrwt beam="2">0</pdfrwt>
<totfact> 0.18056565E+04</totfact>
</mgrwt>
</event>
<event>
 6    1  0.1273846E-001  0.3000000E+03  0.7818608E-02  0.1093470E+00
         21   -1    0    0  501  502  0.00000000000E+00  0.00000000000E+00  0.11728001884E+01  0.11728001884E+01  0.00000000000E+00 0. -1.
         13   -1    0    0    0    0 -0.00000000000E+00 -0.00000000000E+00 -0.10000000000E+04  0.10000000000E+04  0.00000000000E+00 0.  1.
    9000005    2    1    2  501    0 -0.31036235204E+02  0.62151950374E+01 -0.31271244197E+03  0.31432832182E+03  0.33683804410E+01 0.  0.
         13    1    3    3    0    0 -0.19853919803E+02  0.54033962602E+01 -0.21012733413E+03  0.21113235510E+03  0.00000000000E+00 0.  1.
          3    1    3    3  501    0 -0.11182315400E+02  0.81179877728E+00 -0.10258510784E+03  0.10319596671E+03  0.00000000000E+00 0.  1.
         -3    1    1    2    0  502  0.31036235204E+02 -0.62151950374E+01 -0.68611475784E+03  0.68684447837E+03  0.00000000000E+00 0. -1.
<mgrwt>
<rscale>  1 0.30000000E+03</rscale>
<asrwt>0</asrwt>
<pdfrwt beam="1">  1       21 0.42647370E-02 0.30000000E+03</pdfrwt>
<pdfrwt beam="2">0</pdfrwt>
<totfact> 0.37738516E+04</totfact>
</mgrwt>
</event>
<event>
 6    1  0.1273846E-001  0.3000000E+03  0.7818608E-02  0.1093470E+00
         21   -1    0    0  501  502  0.00000000000E+00  0.00000000000E+00  0.14219787640E+01  0.14219787640E+01  0.00000000000E+00 0. -1.
         13   -1    0    0    0    0 -0.00000000000E+00 -0.00000000000E+00 -0.10000000000E+04  0.10000000000E+04  0.00000000000E+00 0.  1.
    9000005    2    1    2  501    0  0.19448504880E+02  0.28848734104E+02 -0.69078472682E+03  0.69166851892E+03  0.33626548723E+01 0.  0.
         13    1    3    3    0    0  0.18603556013E+02  0.28034517134E+02 -0.67626628974E+03  0.67710274042E+03  0.00000000000E+00 0.  1.
          3    1    3    3  501    0  0.84494886698E+00  0.81421696946E+00 -0.14518437089E+02  0.14565778502E+02  0.00000000000E+00 0.  1.
         -3    1    1    2    0  502 -0.19448504880E+02 -0.28848734104E+02 -0.30779329441E+03  0.30975345985E+03  0.00000000000E+00 0. -1.
<mgrwt>
<rscale>  1 0.30000000E+03</rscale>
<asrwt>0</asrwt>
<pdfrwt beam="1">  1       21 0.51708428E-02 0.30000000E+03</pdfrwt>
<pdfrwt beam="2">0</pdfrwt>
<totfact> 0.27199868E+04</totfact>
</mgrwt>
</event>
<event>
 6    1  0.1273846E-001  0.3000000E+03  0.7818608E-02  0.1093470E+00
         21   -1    0    0  501  502  0.00000000000E+00  0.00000000000E+00  0.22478739288E+01  0.22478739288E+01  0.00000000000E+00 0. -1.
         13   -1    0    0    0    0 -0.00000000000E+00 -0.00000000000E+00 -0.10000000000E+04  0.10000000000E+04  0.00000000000E+00 0.  1.
    9000005    2    1    2  501    0 -0.23101930450E+02 -0.34335828969E+02 -0.74283648111E+03  0.74399483061E+03  0.31019273182E+01 0.  0.
         13    1    3    3    0    0 -0.21378524613E+02 -0.31215771435E+02 -0.69202097033E+03  0.69305446329E+03  0.00000000000E+00 0.  1.
          1    1    3    3  501    0 -0.17234058371E+01 -0.31200575343E+01 -0.50815510780E+02  0.50940367319E+02  0.00000000000E+00 0.  1.
         -3    1    1    2    0  502  0.23101930450E+02  0.34335828969E+02 -0.25491564496E+03  0.25825304332E+03  0.00000000000E+00 0. -1.
<mgrwt>
<rscale>  1 0.30000000E+03</rscale>
<asrwt>0</asrwt>
<pdfrwt beam="1">  1       21 0.81741043E-02 0.30000000E+03</pdfrwt>
<pdfrwt beam="2">0</pdfrwt>
<totfact> 0.12299540E+04</totfact>
</mgrwt>
</event>
<event>
 6    1  0.1273846E-001  0.3000000E+03  0.7818608E-02  0.1093470E+00
         21   -1    0    0  501  502  0.00000000000E+00  0.00000000000E+00  0.43704389782E+01  0.43704389782E+01  0.00000000000E+00 0. -1.
         13   -1    0    0    0    0 -0.00000000000E+00 -0.00000000000E+00 -0.10000000000E+04  0.10000000000E+04  0.00000000000E+00 0.  1.
    9000005    2    1    2  501    0  0.27903411872E+02 -0.38094942752E+02 -0.84912303404E+03  0.85044192470E+03  0.34227628977E+01 0.  0.
         13    1    3    3    0    0  0.11100528848E+02 -0.18020919795E+02 -0.38260038903E+03  0.38318537678E+03  0.00000000000E+00 0.  1.
          3    1    3    3  501    0  0.16802883023E+02 -0.20074022957E+02 -0.46652264501E+03  0.46725654793E+03  0.00000000000E+00 0.  1.
         -1    1    1    2    0  502 -0.27903411872E+02  0.38094942752E+02 -0.14650652699E+03  0.15392851427E+03  0.00000000000E+00 0. -1.
<mgrwt>
<rscale>  1 0.30000000E+03</rscale>
<asrwt>0</asrwt>
<pdfrwt beam="1">  1       21 0.15892539E-01 0.30000000E+03</pdfrwt>
<pdfrwt beam="2">0</pdfrwt>
<totfact> 0.36988232E+03</totfact>
</mgrwt>
</event>
<event>
 6    1  0.1273846E-001  0.3000000E+03  0.7818608E-02  0.1093470E+00
         21   -1    0    0  501  502  0.00000000000E+00  0.00000000000E+00  0.13502892574E+01  0.13502892574E+01  0.00000000000E+00 0. -1.
         13   -1    0    0    0    0 -0.00000000000E+00 -0.00000000000E+00 -0.10000000000E+04  0.10000000000E+04  0.00000000000E+00 0.  1.
    9000005    2    1    2  501    0 -0.21362623503E+02 -0.26835503376E+02 -0.67646047292E+03  0.67734039606E+03  0.38385909163E+01 0.  0.
         13    1    3    3    0    0 -0.20081283722E+02 -0.25731492909E+02 -0.65532784976E+03  0.65614019718E+03  0.00000000000E+00 0.  1.
          3    1    3    3  501    0 -0.12813397815E+01 -0.11040104671E+01 -0.21132623161E+02  0.21200198877E+02  0.00000000000E+00 0.  1.
         -1    1    1    2    0  502  0.21362623503E+02  0.26835503376E+02 -0.32218923782E+03  0.32400989320E+03  0.00000000000E+00 0. -1.
<mgrwt>
<rscale>  1 0.30000000E+03</rscale>
<asrwt>0</asrwt>
<pdfrwt beam="1">  1       21 0.49101531E-02 0.30000000E+03</pdfrwt>
<pdfrwt beam="2">0</pdfrwt>
<totfact> 0.29708553E+04</totfact>
</mgrwt>
</event>
<event>
 6    1  0.1273846E-001  0.3000000E+03  0.7818608E-02  0.1093470E+00
         21   -1    0    0  501  502  0.00000000000E+00  0.00000000000E+00  0.15277768017E+01  0.15277768017E+01  0.00000000000E+00 0. -1.
         13   -1    0    0    0    0 -0.00000000000E+00 -0.00000000000E+00 -0.10000000000E+04  0.10000000000E+04  0.00000000000E+00 0.  1.
    9000005    2    1    2  501    0  0.11734493957E+02  0.36340383109E+02 -0.59905888460E+03  0.60029301156E+03  0.46723345049E+01 0.  0.
         13    1    3    3    0    0  0.96804137446E+01  0.28022073919E+02 -0.43353632875E+03  0.43454884120E+03  0.00000000000E+00 0.  1.
          1    1    3    3  501    0  0.20540802125E+01  0.83183091899E+01 -0.16552255585E+03  0.16574417036E+03  0.00000000000E+00 0.  1.
         -3    1    1    2    0  502 -0.11734493957E+02 -0.36340383109E+02 -0.39941333859E+03  0.40123476524E+03  0.00000000000E+00 0. -1.
<mgrwt>
<rscale>  1 0.30000000E+03</rscale>
<asrwt>0</asrwt>
<pdfrwt beam="1">  1       21 0.55555637E-02 0.30000000E+03</pdfrwt>
<pdfrwt beam="2">0</pdfrwt>
<totfact> 0.24055782E+04</totfact>
</mgrwt>
</event>
<event>
 6    1  0.1273846E-001  0.3000000E+03  0.7818608E-02  0.1093470E+00
         21   -1    0    0  501  502  0.00000000000E+00  0.00000000000E+00  0.13344208071E+01  0.13344208071E+01  0.00000000000E+00 0. -1.
         13   -1    0    0    0    0 -0.00000000000E+00 -0.00000000000E+00 -0.10000000000E+04  0.10000000000E+04  0.00000000000E+00 0.  1.
    9000005    2    1    2  501    0  0.28631265618E+02  0.17437268604E+02 -0.69654815777E+03  0.69736280365E+03  0.34258021651E+01 0.  0.
         13    1    3    3    0    0  0.11665292368E+02  0.89618140102E+01 -0.29173112011E+03  0.29210176240E+03  0.00000000000E+00 0.  1.
          3    1    3    3  501    0  0.16965973250E+02  0.84754545941E+01 -0.40481703765E+03  0.40526104125E+03  0.00000000000E+00 0.  1.
         -1    1    1    2    0  502 -0.28631265618E+02 -0.17437268604E+02 -0.30211742143E+03  0.30397161716E+03  0.00000000000E+00 0. -1.
<mgrwt>
<rscale>  1 0.30000000E+03</rscale>
<asrwt>0</asrwt>
<pdfrwt beam="1">  1       21 0.48524495E-02 0.30000000E+03</pdfrwt>
<pdfrwt beam="2">0</pdfrwt>
<totfact> 0.30312640E+04</totfact>
</mgrwt>
</event>
<event>
 6    1  0.1273846E-001  0.3000000E+03  0.7818608E-02  0.1093470E+00
         21   -1    0    0  501  502  0.00000000000E+00  0.00000000000E+00  0.20662956873E+01  0.20662956873E+01  0.00000000000E+00 0. -1.
         13   -1    0    0    0    0 -0.00000000000E+00 -0.00000000000E+00 -0.10000000000E+04  0.10000000000E+04  0.00000000000E+00 0.  1.
    9000005    2    1    2  501    0 -0.26370814861E+02 -0.36579848955E+02 -0.55098737378E+03  0.55285083780E+03  0.48433013444E+01 0.  0.
         13    1    3    3    0    0 -0.12440857490E+02 -0.13720463362E+02 -0.21108288484E+03  0.21189386571E+03  0.00000000000E+00 0.  1.
          3    1    3    3  501    0 -0.13929957370E+02 -0.22859385593E+02 -0.33990448894E+03  0.34095697210E+03  0.00000000000E+00 0.  1.
         -1    1    1    2    0  502  0.26370814861E+02  0.36579848955E+02 -0.44694633053E+03  0.44921545789E+03  0.00000000000E+00 0. -1.
<mgrwt>
<rscale>  1 0.30000000E+03</rscale>
<asrwt>0</asrwt>
<pdfrwt beam="1">  1       21 0.75138183E-02 0.30000000E+03</pdfrwt>
<pdfrwt beam="2">0</pdfrwt>
<totfact> 0.14258433E+04</totfact>
</mgrwt>
</event>
<event>
 6    1  0.1273846E-001  0.3000000E+03  0.7818608E-02  0.1093470E+00
         21   -1    0    0  501  502  0.00000000000E+00  0.00000000000E+00  0.52333770216E+01  0.52333770216E+01  0.00000000000E+00 0. -1.
         13   -1    0    0    0    0 -0.00000000000E+00 -0.00000000000E+00 -0.10000000000E+04  0.10000000000E+04  0.00000000000E+00 0.  1.
    9000005    2    1    2  501    0  0.32343219138E+02 -0.25325643180E+02 -0.91105422101E+03  0.91198511553E+03  0.30960158802E+01 0.  0.
         13    1    3    3    0    0  0.15941538323E+02 -0.11127561146E+02 -0.40590013922E+03  0.40636544917E+03  0.00000000000E+00 0.  1.
          3    1    3    3  501    0  0.16401680815E+02 -0.14198082034E+02 -0.50515408178E+03  0.50561966636E+03  0.00000000000E+00 0.  1.
         -3    1    1    2    0  502 -0.32343219138E+02  0.25325643180E+02 -0.83712401973E+02  0.93248261489E+02  0.00000000000E+00 0. -1.
<mgrwt>
<rscale>  1 0.30000000E+03</rscale>
<asrwt>0</asrwt>
<pdfrwt beam="1">  1       21 0.19030502E-01 0.30000000E+03</pdfrwt>
<pdfrwt beam="2">0</pdfrwt>
<totfact> 0.26370581E+03</totfact>
</mgrwt>
</event>
<event>
 6    1  0.1273846E-001  0.3000000E+03  0.7818608E-02  0.1093470E+00
         21   -1    0    0  501  502  0.00000000000E+00  0.00000000000E+00  0.81523443765E+01  0.81523443765E+01  0.00000000000E+00 0. -1.
         13   -1    0    0    0    0 -0.00000000000E+00 -0.00000000000E+00 -0.10000000000E+04  0.10000000000E+04  0.00000000000E+00 0.  1.
    9000005    2    1    2  501    0  0.44204935284E+02  0.77670617547E+02 -0.42601060337E+03  0.43530125479E+03  0.39175384616E+01 0.  0.
         13    1    3    3    0    0  0.22706912091E+02  0.39662144643E+02 -0.20833430173E+03  0.21328823421E+03  0.00000000000E+00 0.  1.
          3    1    3    3  501    0  0.21498023192E+02  0.38008472904E+02 -0.21767630164E+03  0.22201302059E+03  0.00000000000E+00 0.  1.
         -1    1    1    2    0  502 -0.44204935284E+02 -0.77670617547E+02 -0.56583705225E+03  0.57285108958E+03  0.00000000000E+00 0. -1.
<mgrwt>
<rscale>  1 0.30000000E+03</rscale>
<asrwt>0</asrwt>
<pdfrwt beam="1">  1       21 0.29644951E-01 0.30000000E+03</pdfrwt>
<pdfrwt beam="2">0</pdfrwt>
<totfact> 0.11134630E+03</totfact>
</mgrwt>
</event>
<event>
 6    1  0.1273846E-001  0.3000000E+03  0.7818608E-02  0.1093470E+00
         21   -1    0    0  501  502  0.00000000000E+00  0.00000000000E+00  0.78043957405E+01  0.78043957405E+01  0.00000000000E+00 0. -1.
         13   -1    0    0    0    0 -0.00000000000E+00 -0.00000000000E+00 -0.10000000000E+04  0.10000000000E+04  0.00000000000E+00 0.  1.
    9000005    2    1    2  501    0 -0.60986497771E+02  0.19205671795E+02 -0.84372373378E+03  0.84615011320E+03  0.34733828653E+01 0.  0.
         13    1    3    3    0    0 -0.37422456574E+01  0.32908420172E+00 -0.48781514261E+02  0.48925952547E+02  0.00000000000E+00 0.  1.
          3    1    3    3  501    0 -0.57244252113E+02  0.18876587593E+02 -0.79494221952E+03  0.79722416065E+03  0.00000000000E+00 0.  1.
         -1    1    1    2    0  502  0.60986497771E+02 -0.19205671795E+02 -0.14847187048E+03  0.16165428254E+03  0.00000000000E+00 0. -1.
<mgrwt>
<rscale>  1 0.30000000E+03</rscale>
<asrwt>0</asrwt>
<pdfrwt beam="1">  1       21 0.28379681E-01 0.30000000E+03</pdfrwt>
<pdfrwt beam="2">0</pdfrwt>
<totfact> 0.12145023E+03</totfact>
</mgrwt>
</event>
<event>
 6    1  0.1273846E-001  0.3000000E+03  0.7818608E-02  0.1093470E+00
         21   -1    0    0  501  502  0.00000000000E+00  0.00000000000E+00  0.28311663224E+01  0.28311663224E+01  0.00000000000E+00 0. -1.
         13   -1    0    0    0    0 -0.00000000000E+00 -0.00000000000E+00 -0.10000000000E+04  0.10000000000E+04  0.00000000000E+00 0.  1.
    9000005    2    1    2  501    0  0.37922906842E+02 -0.23322087316E+02 -0.77284799372E+03  0.77413506697E+03  0.30023147929E+01 0.  0.
         13    1    3    3    0    0  0.14227724966E+02 -0.98037544885E+01 -0.31996946980E+03  0.32043564621E+03  0.00000000000E+00 0.  1.
          1    1    3    3  501    0  0.23695181876E+02 -0.13518332827E+02 -0.45287852392E+03  0.45369942076E+03  0.00000000000E+00 0.  1.
         -3    1    1    2    0  502 -0.37922906842E+02  0.23322087316E+02 -0.22432083996E+03  0.22869609935E+03  0.00000000000E+00 0. -1.
<mgrwt>
<rscale>  1 0.30000000E+03</rscale>
<asrwt>0</asrwt>
<pdfrwt beam="1">  1       21 0.10295172E-01 0.30000000E+03</pdfrwt>
<pdfrwt beam="2">0</pdfrwt>
<totfact> 0.81670535E+03</totfact>
</mgrwt>
</event>
<event>
 6    1  0.1273846E-001  0.3000000E+03  0.7818608E-02  0.1093470E+00
         21   -1    0    0  501  502  0.00000000000E+00  0.00000000000E+00  0.13915666471E+01  0.13915666471E+01  0.00000000000E+00 0. -1.
         13   -1    0    0    0    0 -0.00000000000E+00 -0.00000000000E+00 -0.10000000000E+04  0.10000000000E+04  0.00000000000E+00 0.  1.
    9000005    2    1    2  501    0  0.22063465756E+01 -0.33856312604E+02 -0.70612992330E+03  0.70695176514E+03  0.31955887582E+01 0.  0.
         13    1    3    3    0    0  0.15822055470E+01 -0.30355898120E+02 -0.64880732481E+03  0.64951899792E+03  0.00000000000E+00 0.  1.
          1    1    3    3  501    0  0.62414102853E+00 -0.35004144839E+01 -0.57322598491E+02  0.57432767227E+02  0.00000000000E+00 0.  1.
         -1    1    1    2    0  502 -0.22063465756E+01  0.33856312604E+02 -0.29247851005E+03  0.29443980150E+03  0.00000000000E+00 0. -1.
<mgrwt>
<rscale>  1 0.30000000E+03</rscale>
<asrwt>0</asrwt>
<pdfrwt beam="1">  1       21 0.50602530E-02 0.30000000E+03</pdfrwt>
<pdfrwt beam="2">0</pdfrwt>
<totfact> 0.28222251E+04</totfact>
</mgrwt>
</event>
<event>
 6    1  0.1273846E-001  0.3000000E+03  0.7818608E-02  0.1093470E+00
         21   -1    0    0  501  502  0.00000000000E+00  0.00000000000E+00  0.22134844031E+01  0.22134844031E+01  0.00000000000E+00 0. -1.
         13   -1    0    0    0    0 -0.00000000000E+00 -0.00000000000E+00 -0.10000000000E+04  0.10000000000E+04  0.00000000000E+00 0.  1.
    9000005    2    1    2  501    0  0.15852164898E+02  0.26587441504E+02 -0.87419847003E+03  0.87480787940E+03  0.10376786099E+02 0.  0.
         13    1    3    3    0    0  0.26167583799E+01  0.79972014333E+01 -0.13835779992E+03  0.13861343172E+03  0.00000000000E+00 0.  1.
          3    1    3    3  501    0  0.13235406519E+02  0.18590240071E+02 -0.73584067011E+03  0.73619444768E+03  0.00000000000E+00 0.  1.
         -3    1    1    2    0  502 -0.15852164898E+02 -0.26587441504E+02 -0.12358804557E+03  0.12740560500E+03  0.00000000000E+00 0. -1.
<mgrwt>
<rscale>  1 0.30000000E+03</rscale>
<asrwt>0</asrwt>
<pdfrwt beam="1">  1       21 0.80490512E-02 0.30000000E+03</pdfrwt>
<pdfrwt beam="2">0</pdfrwt>
<totfact> 0.12637430E+04</totfact>
</mgrwt>
</event>
<event>
 6    1  0.1273846E-001  0.3000000E+03  0.7818608E-02  0.1093470E+00
         21   -1    0    0  501  502  0.00000000000E+00  0.00000000000E+00  0.15626211802E+01  0.15626211802E+01  0.00000000000E+00 0. -1.
         13   -1    0    0    0    0 -0.00000000000E+00 -0.00000000000E+00 -0.10000000000E+04  0.10000000000E+04  0.00000000000E+00 0.  1.
    9000005    2    1    2  501    0 -0.31036767573E+02 -0.90130786234E+01 -0.23227122922E+03  0.23471512310E+03  0.98360845001E+01 0.  0.
         13    1    3    3    0    0 -0.23781046906E+02 -0.23873020142E+01 -0.15828691645E+03  0.16008118354E+03  0.00000000000E+00 0.  1.
          3    1    3    3  501    0 -0.72557206669E+01 -0.66257766093E+01 -0.73984312771E+02  0.74633939561E+02  0.00000000000E+00 0.  1.
         -1    1    1    2    0  502  0.31036767573E+02  0.90130786234E+01 -0.76616614960E+03  0.76684749808E+03  0.00000000000E+00 0. -1.
<mgrwt>
<rscale>  1 0.30000000E+03</rscale>
<asrwt>0</asrwt>
<pdfrwt beam="1">  1       21 0.56822708E-02 0.30000000E+03</pdfrwt>
<pdfrwt beam="2">0</pdfrwt>
<totfact> 0.23141878E+04</totfact>
</mgrwt>
</event>
<event>
 6    1  0.1273846E-001  0.3000000E+03  0.7818608E-02  0.1093470E+00
         21   -1    0    0  501  502  0.00000000000E+00  0.00000000000E+00  0.12940087938E+01  0.12940087938E+01  0.00000000000E+00 0. -1.
         13   -1    0    0    0    0 -0.00000000000E+00 -0.00000000000E+00 -0.10000000000E+04  0.10000000000E+04  0.00000000000E+00 0.  1.
    9000005    2    1    2  501    0 -0.56896549955E+01 -0.30707773447E+02 -0.74225903964E+03  0.74295241614E+03  0.73804611215E+01 0.  0.
         13    1    3    3    0    0 -0.60287605382E+01 -0.16604874083E+02 -0.36001027858E+03  0.36044343312E+03  0.00000000000E+00 0.  1.
          3    1    3    3  501    0  0.33910554265E+00 -0.14102899364E+02 -0.38224876106E+03  0.38250898303E+03  0.00000000000E+00 0.  1.
         -1    1    1    2    0  502  0.56896549955E+01  0.30707773447E+02 -0.25644695157E+03  0.25834159265E+03  0.00000000000E+00 0. -1.
<mgrwt>
<rscale>  1 0.30000000E+03</rscale>
<asrwt>0</asrwt>
<pdfrwt beam="1">  1       21 0.47054964E-02 0.30000000E+03</pdfrwt>
<pdfrwt beam="2">0</pdfrwt>
<totfact> 0.31940797E+04</totfact>
</mgrwt>
</event>
<event>
 6    1  0.1273846E-001  0.3000000E+03  0.7818608E-02  0.1093470E+00
         21   -1    0    0  501  502  0.00000000000E+00  0.00000000000E+00  0.12240462824E+01  0.12240462824E+01  0.00000000000E+00 0. -1.
         13   -1    0    0    0    0 -0.00000000000E+00 -0.00000000000E+00 -0.10000000000E+04  0.10000000000E+04  0.00000000000E+00 0.  1.
    9000005    2    1    2  501    0 -0.15218717879E+02  0.29468664992E+02 -0.65698901218E+03  0.65783166867E+03  0.28161324298E+01 0.  0.
         13    1    3    3    0    0 -0.15616716085E+01  0.16352216843E+01 -0.39106694384E+02  0.39172009316E+02  0.00000000000E+00 0.  1.
          1    1    3    3  501    0 -0.13657046271E+02  0.27833443307E+02 -0.61788231779E+03  0.61865965936E+03  0.00000000000E+00 0.  1.
         -3    1    1    2    0  502  0.15218717879E+02 -0.29468664992E+02 -0.34178694154E+03  0.34339237761E+03  0.00000000000E+00 0. -1.
<mgrwt>
<rscale>  1 0.30000000E+03</rscale>
<asrwt>0</asrwt>
<pdfrwt beam="1">  1       21 0.44510868E-02 0.30000000E+03</pdfrwt>
<pdfrwt beam="2">0</pdfrwt>
<totfact> 0.35102919E+04</totfact>
</mgrwt>
</event>
<event>
 6    1  0.1273846E-001  0.3000000E+03  0.7818608E-02  0.1093470E+00
         21   -1    0    0  501  502  0.00000000000E+00  0.00000000000E+00  0.13867301376E+01  0.13867301376E+01  0.00000000000E+00 0. -1.
         13   -1    0    0    0    0 -0.00000000000E+00 -0.00000000000E+00 -0.10000000000E+04  0.10000000000E+04  0.00000000000E+00 0.  1.
    9000005    2    1    2  501    0 -0.33611690292E+02 -0.14405320791E+02 -0.41017749537E+03  0.41181576775E+03  0.30642888081E+01 0.  0.
         13    1    3    3    0    0 -0.74456080380E+01 -0.44492464144E+01 -0.90486975699E+02  0.90901736198E+02  0.00000000000E+00 0.  1.
          1    1    3    3  501    0 -0.26166082254E+02 -0.99560743769E+01 -0.31969051967E+03  0.32091403155E+03  0.00000000000E+00 0.  1.
         -1    1    1    2    0  502  0.33611690292E+02  0.14405320791E+02 -0.58843577449E+03  0.58957096239E+03  0.00000000000E+00 0. -1.
<mgrwt>
<rscale>  1 0.30000000E+03</rscale>
<asrwt>0</asrwt>
<pdfrwt beam="1">  1       21 0.50426657E-02 0.30000000E+03</pdfrwt>
<pdfrwt beam="2">0</pdfrwt>
<totfact> 0.28390342E+04</totfact>
</mgrwt>
</event>
<event>
 6    1  0.1273846E-001  0.3000000E+03  0.7818608E-02  0.1093470E+00
         21   -1    0    0  501  502  0.00000000000E+00  0.00000000000E+00  0.37739636980E+01  0.37739636980E+01  0.00000000000E+00 0. -1.
         13   -1    0    0    0    0 -0.00000000000E+00 -0.00000000000E+00 -0.10000000000E+04  0.10000000000E+04  0.00000000000E+00 0.  1.
    9000005    2    1    2  501    0 -0.25763544600E+02  0.31120222025E+02 -0.87609856840E+03  0.87703471566E+03  0.29937379390E+01 0.  0.
         13    1    3    3    0    0 -0.31090411352E-01  0.36272330947E+00 -0.12882143591E+02  0.12887286693E+02  0.00000000000E+00 0.  1.
          1    1    3    3  501    0 -0.25732454189E+02  0.30757498716E+02 -0.86321642481E+03  0.86414742897E+03  0.00000000000E+00 0.  1.
         -3    1    1    2    0  502  0.25763544600E+02 -0.31120222025E+02 -0.12012746790E+03  0.12673924804E+03  0.00000000000E+00 0. -1.
<mgrwt>
<rscale>  1 0.30000000E+03</rscale>
<asrwt>0</asrwt>
<pdfrwt beam="1">  1       21 0.13723533E-01 0.30000000E+03</pdfrwt>
<pdfrwt beam="2">0</pdfrwt>
<totfact> 0.48510752E+03</totfact>
</mgrwt>
</event>
<event>
 6    1  0.1273846E-001  0.3000000E+03  0.7818608E-02  0.1093470E+00
         21   -1    0    0  501  502  0.00000000000E+00  0.00000000000E+00  0.25129431037E+01  0.25129431037E+01  0.00000000000E+00 0. -1.
         13   -1    0    0    0    0 -0.00000000000E+00 -0.00000000000E+00 -0.10000000000E+04  0.10000000000E+04  0.00000000000E+00 0.  1.
    9000005    2    1    2  501    0  0.88698604542E+01  0.45329601932E+02 -0.69264638630E+03  0.69419284696E+03  0.33533686806E+01 0.  0.
         13    1    3    3    0    0  0.11030900479E+01  0.12361150741E+02 -0.17494301416E+03  0.17538264754E+03  0.00000000000E+00 0.  1.
          3    1    3    3  501    0  0.77667704063E+01  0.32968451191E+02 -0.51770337214E+03  0.51881019941E+03  0.00000000000E+00 0.  1.
         -1    1    1    2    0  502 -0.88698604542E+01 -0.45329601932E+02 -0.30484067060E+03  0.30832009614E+03  0.00000000000E+00 0. -1.
<mgrwt>
<rscale>  1 0.30000000E+03</rscale>
<asrwt>0</asrwt>
<pdfrwt beam="1">  1       21 0.91379942E-02 0.30000000E+03</pdfrwt>
<pdfrwt beam="2">0</pdfrwt>
<totfact> 0.10101860E+04</totfact>
</mgrwt>
</event>
<event>
 6    1  0.1273846E-001  0.3000000E+03  0.7818608E-02  0.1093470E+00
         21   -1    0    0  501  502  0.00000000000E+00  0.00000000000E+00  0.15495341722E+01  0.15495341722E+01  0.00000000000E+00 0. -1.
         13   -1    0    0    0    0 -0.00000000000E+00 -0.00000000000E+00 -0.10000000000E+04  0.10000000000E+04  0.00000000000E+00 0.  1.
    9000005    2    1    2  501    0 -0.38589365665E+02  0.55677835510E+01 -0.56203571394E+03  0.56339662134E+03  0.33867151808E+01 0.  0.
         13    1    3    3    0    0 -0.28084351874E+02  0.52279243612E+01 -0.39682237882E+03  0.39784929602E+03  0.00000000000E+00 0.  1.
          1    1    3    3  501    0 -0.10505013791E+02  0.33985918976E+00 -0.16521333512E+03  0.16554732532E+03  0.00000000000E+00 0.  1.
         -3    1    1    2    0  502  0.38589365665E+02 -0.55677835510E+01 -0.43641475189E+03  0.43815291283E+03  0.00000000000E+00 0. -1.
<mgrwt>
<rscale>  1 0.30000000E+03</rscale>
<asrwt>0</asrwt>
<pdfrwt beam="1">  1       21 0.56346816E-02 0.30000000E+03</pdfrwt>
<pdfrwt beam="2">0</pdfrwt>
<totfact> 0.23478775E+04</totfact>
</mgrwt>
</event>
<event>
 6    1  0.1273846E-001  0.3000000E+03  0.7818608E-02  0.1093470E+00
         21   -1    0    0  501  502  0.00000000000E+00  0.00000000000E+00  0.16323511193E+01  0.16323511193E+01  0.00000000000E+00 0. -1.
         13   -1    0    0    0    0 -0.00000000000E+00 -0.00000000000E+00 -0.10000000000E+04  0.10000000000E+04  0.00000000000E+00 0.  1.
    9000005    2    1    2  501    0  0.50453259261E+01 -0.34265136433E+02 -0.75566028557E+03  0.75646624601E+03  0.43771313011E+01 0.  0.
         13    1    3    3    0    0  0.14595213163E+00 -0.15688440358E+02 -0.33114173979E+03  0.33151319776E+03  0.00000000000E+00 0.  1.
          1    1    3    3  501    0  0.48993737945E+01 -0.18576696076E+02 -0.42451854578E+03  0.42495304825E+03  0.00000000000E+00 0.  1.
         -3    1    1    2    0  502 -0.50453259261E+01  0.34265136433E+02 -0.24270736331E+03  0.24516610511E+03  0.00000000000E+00 0. -1.
<mgrwt>
<rscale>  1 0.30000000E+03</rscale>
<asrwt>0</asrwt>
<pdfrwt beam="1">  1       21 0.59358348E-02 0.30000000E+03</pdfrwt>
<pdfrwt beam="2">0</pdfrwt>
<totfact> 0.21465959E+04</totfact>
</mgrwt>
</event>
<event>
 6    1  0.1273846E-001  0.3000000E+03  0.7818608E-02  0.1093470E+00
         21   -1    0    0  501  502  0.00000000000E+00  0.00000000000E+00  0.13155298047E+01  0.13155298047E+01  0.00000000000E+00 0. -1.
         13   -1    0    0    0    0 -0.00000000000E+00 -0.00000000000E+00 -0.10000000000E+04  0.10000000000E+04  0.00000000000E+00 0.  1.
    9000005    2    1    2  501    0  0.32566786228E+02  0.14078104930E+02 -0.60056906709E+03  0.60162231896E+03  0.27242843021E+01 0.  0.
         13    1    3    3    0    0  0.12620934244E+01  0.11615303204E+01 -0.30909524529E+02  0.30957078982E+02  0.00000000000E+00 0.  1.
          1    1    3    3  501    0  0.31304692803E+02  0.12916574610E+02 -0.56965954256E+03  0.57066523998E+03  0.00000000000E+00 0.  1.
         -1    1    1    2    0  502 -0.32566786228E+02 -0.14078104930E+02 -0.39811540311E+03  0.39969321084E+03  0.00000000000E+00 0. -1.
<mgrwt>
<rscale>  1 0.30000000E+03</rscale>
<asrwt>0</asrwt>
<pdfrwt beam="1">  1       21 0.47837548E-02 0.30000000E+03</pdfrwt>
<pdfrwt beam="2">0</pdfrwt>
<totfact> 0.31057173E+04</totfact>
</mgrwt>
</event>
<event>
 6    1  0.1273846E-001  0.3000000E+03  0.7818608E-02  0.1093470E+00
         21   -1    0    0  501  502  0.00000000000E+00  0.00000000000E+00  0.16598412515E+01  0.16598412515E+01  0.00000000000E+00 0. -1.
         13   -1    0    0    0    0 -0.00000000000E+00 -0.00000000000E+00 -0.10000000000E+04  0.10000000000E+04  0.00000000000E+00 0.  1.
    9000005    2    1    2  501    0  0.84601674287E+01  0.35871176621E+02 -0.71166298091E+03  0.71262330371E+03  0.30755221253E+01 0.  0.
         13    1    3    3    0    0  0.59595028526E+01  0.22249067315E+02 -0.41854617769E+03  0.41917948367E+03  0.00000000000E+00 0.  1.
          3    1    3    3  501    0  0.25006645761E+01  0.13622109306E+02 -0.29311680323E+03  0.29344382004E+03  0.00000000000E+00 0.  1.
         -1    1    1    2    0  502 -0.84601674287E+01 -0.35871176621E+02 -0.28667717784E+03  0.28903653755E+03  0.00000000000E+00 0. -1.
<mgrwt>
<rscale>  1 0.30000000E+03</rscale>
<asrwt>0</asrwt>
<pdfrwt beam="1">  1       21 0.60357991E-02 0.30000000E+03</pdfrwt>
<pdfrwt beam="2">0</pdfrwt>
<totfact> 0.20856560E+04</totfact>
</mgrwt>
</event>
<event>
 6    1  0.1273846E-001  0.3000000E+03  0.7818608E-02  0.1093470E+00
         21   -1    0    0  501  502  0.00000000000E+00  0.00000000000E+00  0.38820615102E+01  0.38820615102E+01  0.00000000000E+00 0. -1.
         13   -1    0    0    0    0 -0.00000000000E+00 -0.00000000000E+00 -0.10000000000E+04  0.10000000000E+04  0.00000000000E+00 0.  1.
    9000005    2    1    2  501    0 -0.81562537575E+01  0.55470801108E+02 -0.71651555271E+03  0.71871364043E+03  0.33504336508E+01 0.  0.
         13    1    3    3    0    0 -0.45872782526E+01  0.38284082684E+02 -0.50697143990E+03  0.50843559571E+03  0.00000000000E+00 0.  1.
          3    1    3    3  501    0 -0.35689755049E+01  0.17186718424E+02 -0.20954411281E+03  0.21027804472E+03  0.00000000000E+00 0.  1.
         -1    1    1    2    0  502  0.81562537575E+01 -0.55470801108E+02 -0.27960238578E+03  0.28516842108E+03  0.00000000000E+00 0. -1.
<mgrwt>
<rscale>  1 0.30000000E+03</rscale>
<asrwt>0</asrwt>
<pdfrwt beam="1">  1       21 0.14116617E-01 0.30000000E+03</pdfrwt>
<pdfrwt beam="2">0</pdfrwt>
<totfact> 0.46059112E+03</totfact>
</mgrwt>
</event>
<event>
 6    1  0.1273846E-001  0.3000000E+03  0.7818608E-02  0.1093470E+00
         21   -1    0    0  501  502  0.00000000000E+00  0.00000000000E+00  0.12477620675E+01  0.12477620675E+01  0.00000000000E+00 0. -1.
         13   -1    0    0    0    0 -0.00000000000E+00 -0.00000000000E+00 -0.10000000000E+04  0.10000000000E+04  0.00000000000E+00 0.  1.
    9000005    2    1    2  501    0  0.65656981799E+01  0.31573812907E+02 -0.70225047396E+03  0.70299734699E+03  0.30866885412E+01 0.  0.
         13    1    3    3    0    0  0.45174811291E+01  0.26113195960E+02 -0.59163526887E+03  0.59222850152E+03  0.00000000000E+00 0.  1.
          3    1    3    3  501    0  0.20482170508E+01  0.54606169474E+01 -0.11061520509E+03  0.11076884547E+03  0.00000000000E+00 0.  1.
         -1    1    1    2    0  502 -0.65656981799E+01 -0.31573812907E+02 -0.29650176397E+03  0.29825041507E+03  0.00000000000E+00 0. -1.
<mgrwt>
<rscale>  1 0.30000000E+03</rscale>
<asrwt>0</asrwt>
<pdfrwt beam="1">  1       21 0.45373262E-02 0.30000000E+03</pdfrwt>
<pdfrwt beam="2">0</pdfrwt>
<totfact> 0.33978389E+04</totfact>
</mgrwt>
</event>
<event>
 6    1  0.1273846E-001  0.3000000E+03  0.7818608E-02  0.1093470E+00
         21   -1    0    0  501  502  0.00000000000E+00  0.00000000000E+00  0.16378728435E+01  0.16378728435E+01  0.00000000000E+00 0. -1.
         13   -1    0    0    0    0 -0.00000000000E+00 -0.00000000000E+00 -0.10000000000E+04  0.10000000000E+04  0.00000000000E+00 0.  1.
    9000005    2    1    2  501    0  0.20955954229E+02 -0.34448747897E+02 -0.53409191429E+03  0.53561995602E+03  0.29489189630E+01 0.  0.
         13    1    3    3    0    0  0.11708121166E+02 -0.16758927016E+02 -0.26084130817E+03  0.26164122340E+03  0.00000000000E+00 0.  1.
          1    1    3    3  501    0  0.92478330628E+01 -0.17689820881E+02 -0.27325060612E+03  0.27397873262E+03  0.00000000000E+00 0.  1.
         -3    1    1    2    0  502 -0.20955954229E+02  0.34448747897E+02 -0.46427021287E+03  0.46601791683E+03  0.00000000000E+00 0. -1.
<mgrwt>
<rscale>  1 0.30000000E+03</rscale>
<asrwt>0</asrwt>
<pdfrwt beam="1">  1       21 0.59559138E-02 0.30000000E+03</pdfrwt>
<pdfrwt beam="2">0</pdfrwt>
<totfact> 0.21341347E+04</totfact>
</mgrwt>
</event>
<event>
 6    1  0.1273846E-001  0.3000000E+03  0.7818608E-02  0.1093470E+00
         21   -1    0    0  501  502  0.00000000000E+00  0.00000000000E+00  0.12744585171E+01  0.12744585171E+01  0.00000000000E+00 0. -1.
         13   -1    0    0    0    0 -0.00000000000E+00 -0.00000000000E+00 -0.10000000000E+04  0.10000000000E+04  0.00000000000E+00 0.  1.
    9000005    2    1    2  501    0  0.29639291070E+02 -0.19505938343E+02 -0.54601782458E+03  0.54717838261E+03  0.31222486976E+01 0.  0.
         13    1    3    3    0    0  0.23892648869E+02 -0.16654244139E+02 -0.43260250803E+03  0.43358177137E+03  0.00000000000E+00 0.  1.
          3    1    3    3  501    0  0.57466422006E+01 -0.28516942039E+01 -0.11341531655E+03  0.11359661124E+03  0.00000000000E+00 0.  1.
         -1    1    1    2    0  502 -0.29639291070E+02  0.19505938343E+02 -0.45270771691E+03  0.45409607590E+03  0.00000000000E+00 0. -1.
<mgrwt>
<rscale>  1 0.30000000E+03</rscale>
<asrwt>0</asrwt>
<pdfrwt beam="1">  1       21 0.46344044E-02 0.30000000E+03</pdfrwt>
<pdfrwt beam="2">0</pdfrwt>
<totfact> 0.32778135E+04</totfact>
</mgrwt>
</event>
<event>
 6    1  0.1273846E-001  0.3000000E+03  0.7818608E-02  0.1093470E+00
         21   -1    0    0  501  502  0.00000000000E+00  0.00000000000E+00  0.12197378755E+01  0.12197378755E+01  0.00000000000E+00 0. -1.
         13   -1    0    0    0    0 -0.00000000000E+00 -0.00000000000E+00 -0.10000000000E+04  0.10000000000E+04  0.00000000000E+00 0.  1.
    9000005    2    1    2  501    0 -0.28284500021E+02  0.17003157914E+02 -0.34259892744E+03  0.34420903454E+03  0.40882819779E+01 0.  0.
         13    1    3    3    0    0 -0.27483442671E+02  0.15571615263E+02 -0.32252275028E+03  0.32406594895E+03  0.00000000000E+00 0.  1.
          1    1    3    3  501    0 -0.80105734949E+00  0.14315426507E+01 -0.20076177163E+02  0.20143085581E+02  0.00000000000E+00 0.  1.
         -1    1    1    2    0  502  0.28284500021E+02 -0.17003157914E+02 -0.65618133468E+03  0.65701070334E+03  0.00000000000E+00 0. -1.
<mgrwt>
<rscale>  1 0.30000000E+03</rscale>
<asrwt>0</asrwt>
<pdfrwt beam="1">  1       21 0.44354198E-02 0.30000000E+03</pdfrwt>
<pdfrwt beam="2">0</pdfrwt>
<totfact> 0.35313369E+04</totfact>
</mgrwt>
</event>
<event>
 6    1  0.1273846E-001  0.3000000E+03  0.7818608E-02  0.1093470E+00
         21   -1    0    0  501  502  0.00000000000E+00  0.00000000000E+00  0.19628053277E+01  0.19628053277E+01  0.00000000000E+00 0. -1.
         13   -1    0    0    0    0 -0.00000000000E+00 -0.00000000000E+00 -0.10000000000E+04  0.10000000000E+04  0.00000000000E+00 0.  1.
    9000005    2    1    2  501    0  0.35984787820E+02 -0.21944588217E+02 -0.65204024207E+03  0.65340813082E+03  0.30394482022E+01 0.  0.
         13    1    3    3    0    0  0.14131449128E+02 -0.10130024838E+02 -0.28021803938E+03  0.28075694979E+03  0.00000000000E+00 0.  1.
          1    1    3    3  501    0  0.21853338692E+02 -0.11814563380E+02 -0.37182220268E+03  0.37265118104E+03  0.00000000000E+00 0.  1.
         -3    1    1    2    0  502 -0.35984787820E+02  0.21944588217E+02 -0.34599695261E+03  0.34855467450E+03  0.00000000000E+00 0. -1.
<mgrwt>
<rscale>  1 0.30000000E+03</rscale>
<asrwt>0</asrwt>
<pdfrwt beam="1">  1       21 0.71374890E-02 0.30000000E+03</pdfrwt>
<pdfrwt beam="2">0</pdfrwt>
<totfact> 0.15597806E+04</totfact>
</mgrwt>
</event>
<event>
 6    1  0.1273846E-001  0.3000000E+03  0.7818608E-02  0.1093470E+00
         21   -1    0    0  501  502  0.00000000000E+00  0.00000000000E+00  0.94497477244E+00  0.94497477244E+00  0.00000000000E+00 0. -1.
         13   -1    0    0    0    0 -0.00000000000E+00 -0.00000000000E+00 -0.10000000000E+04  0.10000000000E+04  0.00000000000E+00 0.  1.
    9000005    2    1    2  501    0  0.30463769135E+02 -0.29932977213E+01 -0.52881967411E+03  0.52971436615E+03  0.31718952843E+01 0.  0.
         13    1    3    3    0    0  0.21246271902E+02 -0.13120825846E+01 -0.34503897239E+03  0.34569497841E+03  0.00000000000E+00 0.  1.
          1    1    3    3  501    0  0.92174972326E+01 -0.16812151367E+01 -0.18378070172E+03  0.18401938774E+03  0.00000000000E+00 0.  1.
         -3    1    1    2    0  502 -0.30463769135E+02  0.29932977213E+01 -0.47023535112E+03  0.47123060863E+03  0.00000000000E+00 0. -1.
<mgrwt>
<rscale>  1 0.30000000E+03</rscale>
<asrwt>0</asrwt>
<pdfrwt beam="1">  1       21 0.34362791E-02 0.30000000E+03</pdfrwt>
<pdfrwt beam="2">0</pdfrwt>
<totfact> 0.54259693E+04</totfact>
</mgrwt>
</event>
<event>
 6    1  0.1273846E-001  0.3000000E+03  0.7818608E-02  0.1093470E+00
         21   -1    0    0  501  502  0.00000000000E+00  0.00000000000E+00  0.12640643920E+01  0.12640643920E+01  0.00000000000E+00 0. -1.
         13   -1    0    0    0    0 -0.00000000000E+00 -0.00000000000E+00 -0.10000000000E+04  0.10000000000E+04  0.00000000000E+00 0.  1.
    9000005    2    1    2  501    0  0.28401829201E+02  0.15208441884E+02 -0.71008392990E+03  0.71081967900E+03  0.27327540828E+01 0.  0.
         13    1    3    3    0    0  0.27802490302E+02  0.14492102906E+02 -0.68214310449E+03  0.68286324730E+03  0.00000000000E+00 0.  1.
          1    1    3    3  501    0  0.59933889886E+00  0.71633897782E+00 -0.27940825415E+02  0.27956431702E+02  0.00000000000E+00 0.  1.
         -3    1    1    2    0  502 -0.28401829201E+02 -0.15208441884E+02 -0.28865200570E+03  0.29044438539E+03  0.00000000000E+00 0. -1.
<mgrwt>
<rscale>  1 0.30000000E+03</rscale>
<asrwt>0</asrwt>
<pdfrwt beam="1">  1       21 0.45966075E-02 0.30000000E+03</pdfrwt>
<pdfrwt beam="2">0</pdfrwt>
<totfact> 0.33237419E+04</totfact>
</mgrwt>
</event>
<event>
 6    1  0.1273846E-001  0.3000000E+03  0.7818608E-02  0.1093470E+00
         21   -1    0    0  501  502  0.00000000000E+00  0.00000000000E+00  0.63737221083E+01  0.63737221083E+01  0.00000000000E+00 0. -1.
         13   -1    0    0    0    0 -0.00000000000E+00 -0.00000000000E+00 -0.10000000000E+04  0.10000000000E+04  0.00000000000E+00 0.  1.
    9000005    2    1    2  501    0 -0.35686581251E+02  0.71001526788E+02 -0.54369151392E+03  0.54947543943E+03  0.28367827305E+01 0.  0.
         13    1    3    3    0    0 -0.24553905382E+02  0.49972108829E+02 -0.37251224562E+03  0.37665034060E+03  0.00000000000E+00 0.  1.
          3    1    3    3  501    0 -0.11132675868E+02  0.21029417959E+02 -0.17117926830E+03  0.17282509883E+03  0.00000000000E+00 0.  1.
         -1    1    1    2    0  502  0.35686581251E+02 -0.71001526788E+02 -0.44993476397E+03  0.45689828268E+03  0.00000000000E+00 0. -1.
<mgrwt>
<rscale>  1 0.30000000E+03</rscale>
<asrwt>0</asrwt>
<pdfrwt beam="1">  1       21 0.23177220E-01 0.30000000E+03</pdfrwt>
<pdfrwt beam="2">0</pdfrwt>
<totfact> 0.18072244E+03</totfact>
</mgrwt>
</event>
<event>
 6    1  0.1273846E-001  0.3000000E+03  0.7818608E-02  0.1093470E+00
         21   -1    0    0  501  502  0.00000000000E+00  0.00000000000E+00  0.32497806279E+01  0.32497806279E+01  0.00000000000E+00 0. -1.
         13   -1    0    0    0    0 -0.00000000000E+00 -0.00000000000E+00 -0.10000000000E+04  0.10000000000E+04  0.00000000000E+00 0.  1.
    9000005    2    1    2  501    0 -0.28808096796E+02 -0.48605924011E+02 -0.56217292228E+03  0.56501483287E+03  0.33052271205E+01 0.  0.
         13    1    3    3    0    0 -0.16659672355E+02 -0.25573122070E+02 -0.29313122590E+03  0.29471587140E+03  0.00000000000E+00 0.  1.
          1    1    3    3  501    0 -0.12148424440E+02 -0.23032801941E+02 -0.26904169638E+03  0.27029896147E+03  0.00000000000E+00 0.  1.
         -1    1    1    2    0  502  0.28808096796E+02  0.48605924011E+02 -0.43457729709E+03  0.43823494776E+03  0.00000000000E+00 0. -1.
<mgrwt>
<rscale>  1 0.30000000E+03</rscale>
<asrwt>0</asrwt>
<pdfrwt beam="1">  1       21 0.11817409E-01 0.30000000E+03</pdfrwt>
<pdfrwt beam="2">0</pdfrwt>
<totfact> 0.63718395E+03</totfact>
</mgrwt>
</event>
<event>
 6    1  0.1273846E-001  0.3000000E+03  0.7818608E-02  0.1093470E+00
         21   -1    0    0  501  502  0.00000000000E+00  0.00000000000E+00  0.95944782449E+00  0.95944782449E+00  0.00000000000E+00 0. -1.
         13   -1    0    0    0    0 -0.00000000000E+00 -0.00000000000E+00 -0.10000000000E+04  0.10000000000E+04  0.00000000000E+00 0.  1.
    9000005    2    1    2  501    0 -0.24512249799E+02  0.18493746453E+02 -0.55662701024E+03  0.55748158914E+03  0.30372129557E+01 0.  0.
         13    1    3    3    0    0 -0.14609680554E+02  0.98588040606E+01 -0.33999076329E+03  0.34044729093E+03  0.00000000000E+00 0.  1.
          1    1    3    3  501    0 -0.99025692445E+01  0.86349423928E+01 -0.21663624695E+03  0.21703429821E+03  0.00000000000E+00 0.  1.
         -1    1    1    2    0  502  0.24512249799E+02 -0.18493746453E+02 -0.44241354194E+03  0.44347785868E+03  0.00000000000E+00 0. -1.
<mgrwt>
<rscale>  1 0.30000000E+03</rscale>
<asrwt>0</asrwt>
<pdfrwt beam="1">  1       21 0.34889085E-02 0.30000000E+03</pdfrwt>
<pdfrwt beam="2">0</pdfrwt>
<totfact> 0.52897167E+04</totfact>
</mgrwt>
</event>
<event>
 6    1  0.1273846E-001  0.3000000E+03  0.7818608E-02  0.1093470E+00
         21   -1    0    0  501  502  0.00000000000E+00  0.00000000000E+00  0.31853935406E+01  0.31853935406E+01  0.00000000000E+00 0. -1.
         13   -1    0    0    0    0 -0.00000000000E+00 -0.00000000000E+00 -0.10000000000E+04  0.10000000000E+04  0.00000000000E+00 0.  1.
    9000005    2    1    2  501    0 -0.32549596156E+02  0.29348469681E+01 -0.90726300131E+03  0.90785659662E+03  0.30589135864E+01 0.  0.
         13    1    3    3    0    0 -0.44434202186E+01 -0.41681705138E+00 -0.14295174424E+03  0.14302139316E+03  0.00000000000E+00 0.  1.
          3    1    3    3  501    0 -0.28106175937E+02  0.33516640195E+01 -0.76431125706E+03  0.76483520346E+03  0.00000000000E+00 0.  1.
         -3    1    1    2    0  502  0.32549596156E+02 -0.29348469681E+01 -0.89551605152E+02  0.95328796919E+02  0.00000000000E+00 0. -1.
<mgrwt>
<rscale>  1 0.30000000E+03</rscale>
<asrwt>0</asrwt>
<pdfrwt beam="1">  1       21 0.11583274E-01 0.30000000E+03</pdfrwt>
<pdfrwt beam="2">0</pdfrwt>
<totfact> 0.66068404E+03</totfact>
</mgrwt>
</event>
<event>
 6    1  0.1273846E-001  0.3000000E+03  0.7818608E-02  0.1093470E+00
         21   -1    0    0  501  502  0.00000000000E+00  0.00000000000E+00  0.14158962705E+01  0.14158962705E+01  0.00000000000E+00 0. -1.
         13   -1    0    0    0    0 -0.00000000000E+00 -0.00000000000E+00 -0.10000000000E+04  0.10000000000E+04  0.00000000000E+00 0.  1.
    9000005    2    1    2  501    0 -0.63527905476E+01 -0.36739975452E+02 -0.56014294506E+03  0.56139222263E+03  0.33052974090E+01 0.  0.
         13    1    3    3    0    0 -0.57426559332E+01 -0.24235223834E+02 -0.36821782885E+03  0.36905920074E+03  0.00000000000E+00 0.  1.
          1    1    3    3  501    0 -0.61013461442E+00 -0.12504751618E+02 -0.19192511621E+03  0.19233302189E+03  0.00000000000E+00 0.  1.
         -3    1    1    2    0  502  0.63527905476E+01  0.36739975452E+02 -0.43844115867E+03  0.44002367364E+03  0.00000000000E+00 0. -1.
<mgrwt>
<rscale>  1 0.30000000E+03</rscale>
<asrwt>0</asrwt>
<pdfrwt beam="1">  1       21 0.51487246E-02 0.30000000E+03</pdfrwt>
<pdfrwt beam="2">0</pdfrwt>
<totfact> 0.27399695E+04</totfact>
</mgrwt>
</event>
<event>
 6    1  0.1273846E-001  0.3000000E+03  0.7818608E-02  0.1093470E+00
         21   -1    0    0  501  502  0.00000000000E+00  0.00000000000E+00  0.92307480530E+00  0.92307480530E+00  0.00000000000E+00 0. -1.
         13   -1    0    0    0    0 -0.00000000000E+00 -0.00000000000E+00 -0.10000000000E+04  0.10000000000E+04  0.00000000000E+00 0.  1.
    9000005    2    1    2  501    0  0.28472750830E+02 -0.99203701104E+01 -0.54973369337E+03  0.55056937906E+03  0.32243218778E+01 0.  0.
         13    1    3    3    0    0  0.23391124625E+02 -0.90155598677E+01 -0.47104508092E+03  0.47171166330E+03  0.00000000000E+00 0.  1.
          3    1    3    3  501    0  0.50816262046E+01 -0.90481024264E+00 -0.78688612443E+02  0.78857715758E+02  0.00000000000E+00 0.  1.
         -1    1    1    2    0  502 -0.28472750830E+02  0.99203701104E+01 -0.44934323183E+03  0.45035369575E+03  0.00000000000E+00 0. -1.
<mgrwt>
<rscale>  1 0.30000000E+03</rscale>
<asrwt>0</asrwt>
<pdfrwt beam="1">  1       21 0.33566427E-02 0.30000000E+03</pdfrwt>
<pdfrwt beam="2">0</pdfrwt>
<totfact> 0.56427868E+04</totfact>
</mgrwt>
</event>
<event>
 6    1  0.1273846E-001  0.3000000E+03  0.7818608E-02  0.1093470E+00
         21   -1    0    0  501  502  0.00000000000E+00  0.00000000000E+00  0.67993214331E+01  0.67993214331E+01  0.00000000000E+00 0. -1.
         13   -1    0    0    0    0 -0.00000000000E+00 -0.00000000000E+00 -0.10000000000E+04  0.10000000000E+04  0.00000000000E+00 0.  1.
    9000005    2    1    2  501    0  0.33698259058E+01  0.82236654615E+02 -0.46877858441E+03  0.47595776699E+03  0.28655999437E+01 0.  0.
         13    1    3    3    0    0  0.13302239937E+01  0.56919575294E+02 -0.32912133263E+03  0.33400966923E+03  0.00000000000E+00 0.  1.
          1    1    3    3  501    0  0.20396019121E+01  0.25317079321E+02 -0.13965725179E+03  0.14194809776E+03  0.00000000000E+00 0.  1.
         -1    1    1    2    0  502 -0.33698259058E+01 -0.82236654615E+02 -0.52442209415E+03  0.53084155444E+03  0.00000000000E+00 0. -1.
<mgrwt>
<rscale>  1 0.30000000E+03</rscale>
<asrwt>0</asrwt>
<pdfrwt beam="1">  1       21 0.24724857E-01 0.30000000E+03</pdfrwt>
<pdfrwt beam="2">0</pdfrwt>
<totfact> 0.15937183E+03</totfact>
</mgrwt>
</event>
<event>
 6    1  0.1273846E-001  0.3000000E+03  0.7818608E-02  0.1093470E+00
         21   -1    0    0  501  502  0.00000000000E+00  0.00000000000E+00  0.18261138293E+01  0.18261138293E+01  0.00000000000E+00 0. -1.
         13   -1    0    0    0    0 -0.00000000000E+00 -0.00000000000E+00 -0.10000000000E+04  0.10000000000E+04  0.00000000000E+00 0.  1.
    9000005    2    1    2  501    0  0.13122540515E+02 -0.39106962544E+02 -0.37105769049E+03  0.37335473145E+03  0.28965898671E+01 0.  0.
         13    1    3    3    0    0  0.10006193369E+01 -0.12690539128E+01 -0.15429215369E+02  0.15513620589E+02  0.00000000000E+00 0.  1.
          3    1    3    3  501    0  0.12121921178E+02 -0.37837908631E+02 -0.35562847513E+03  0.35784111086E+03  0.00000000000E+00 0.  1.
         -3    1    1    2    0  502 -0.13122540515E+02  0.39106962544E+02 -0.62711619568E+03  0.62847138238E+03  0.00000000000E+00 0. -1.
<mgrwt>
<rscale>  1 0.30000000E+03</rscale>
<asrwt>0</asrwt>
<pdfrwt beam="1">  1       21 0.66404279E-02 0.30000000E+03</pdfrwt>
<pdfrwt beam="2">0</pdfrwt>
<totfact> 0.17682948E+04</totfact>
</mgrwt>
</event>
<event>
 6    1  0.1273846E-001  0.3000000E+03  0.7818608E-02  0.1093470E+00
         21   -1    0    0  501  502  0.00000000000E+00  0.00000000000E+00  0.10260923449E+01  0.10260923449E+01  0.00000000000E+00 0. -1.
         13   -1    0    0    0    0 -0.00000000000E+00 -0.00000000000E+00 -0.10000000000E+04  0.10000000000E+04  0.00000000000E+00 0.  1.
    9000005    2    1    2  501    0  0.25286798880E+02  0.17793030603E+02 -0.62503793105E+03  0.62581398068E+03  0.38352360796E+01 0.  0.
         13    1    3    3    0    0  0.15448015722E+01  0.47781198313E+00 -0.49456420679E+02  0.49482848165E+02  0.00000000000E+00 0.  1.
          1    1    3    3  501    0  0.23741997307E+02  0.17315218619E+02 -0.57558151037E+03  0.57633113252E+03  0.00000000000E+00 0.  1.
         -3    1    1    2    0  502 -0.25286798880E+02 -0.17793030603E+02 -0.37393597661E+03  0.37521211166E+03  0.00000000000E+00 0. -1.
<mgrwt>
<rscale>  1 0.30000000E+03</rscale>
<asrwt>0</asrwt>
<pdfrwt beam="1">  1       21 0.37312528E-02 0.30000000E+03</pdfrwt>
<pdfrwt beam="2">0</pdfrwt>
<totfact> 0.47263346E+04</totfact>
</mgrwt>
</event>
<event>
 6    1  0.1273846E-001  0.3000000E+03  0.7818608E-02  0.1093470E+00
         21   -1    0    0  501  502  0.00000000000E+00  0.00000000000E+00  0.26779450034E+01  0.26779450034E+01  0.00000000000E+00 0. -1.
         13   -1    0    0    0    0 -0.00000000000E+00 -0.00000000000E+00 -0.10000000000E+04  0.10000000000E+04  0.00000000000E+00 0.  1.
    9000005    2    1    2  501    0  0.16244237939E+02 -0.28280405626E+02 -0.88776652911E+03  0.88837103419E+03  0.31666325617E+01 0.  0.
         13    1    3    3    0    0  0.36975956316E+01 -0.51768169017E+01 -0.20435204213E+03  0.20445104248E+03  0.00000000000E+00 0.  1.
          3    1    3    3  501    0  0.12546642307E+02 -0.23103588725E+02 -0.68341448698E+03  0.68391999171E+03  0.00000000000E+00 0.  1.
         -1    1    1    2    0  502 -0.16244237939E+02  0.28280405626E+02 -0.10955552589E+03  0.11430691082E+03  0.00000000000E+00 0. -1.
<mgrwt>
<rscale>  1 0.30000000E+03</rscale>
<asrwt>0</asrwt>
<pdfrwt beam="1">  1       21 0.97380024E-02 0.30000000E+03</pdfrwt>
<pdfrwt beam="2">0</pdfrwt>
<totfact> 0.90208329E+03</totfact>
</mgrwt>
</event>
<event>
 6    1  0.1273846E-001  0.3000000E+03  0.7818608E-02  0.1093470E+00
         21   -1    0    0  501  502  0.00000000000E+00  0.00000000000E+00  0.85634398623E+01  0.85634398623E+01  0.00000000000E+00 0. -1.
         13   -1    0    0    0    0 -0.00000000000E+00 -0.00000000000E+00 -0.10000000000E+04  0.10000000000E+04  0.00000000000E+00 0.  1.
    9000005    2    1    2  501    0  0.52168994271E+02  0.30398863058E+02 -0.87781630822E+03  0.87989620827E+03  0.31892823716E+01 0.  0.
         13    1    3    3    0    0  0.39076500165E+02  0.24334411108E+02 -0.66633129737E+03  0.66791955674E+03  0.00000000000E+00 0.  1.
          3    1    3    3  501    0  0.13092494105E+02  0.60644519502E+01 -0.21148501085E+03  0.21197665153E+03  0.00000000000E+00 0.  1.
         -1    1    1    2    0  502 -0.52168994271E+02 -0.30398863058E+02 -0.11362025192E+03  0.12866723159E+03  0.00000000000E+00 0. -1.
<mgrwt>
<rscale>  1 0.30000000E+03</rscale>
<asrwt>0</asrwt>
<pdfrwt beam="1">  1       21 0.31139847E-01 0.30000000E+03</pdfrwt>
<pdfrwt beam="2">0</pdfrwt>
<totfact> 0.10089094E+03</totfact>
</mgrwt>
</event>
<event>
 6    1  0.1273846E-001  0.3000000E+03  0.7818608E-02  0.1093470E+00
         21   -1    0    0  501  502  0.00000000000E+00  0.00000000000E+00  0.22690456668E+01  0.22690456668E+01  0.00000000000E+00 0. -1.
         13   -1    0    0    0    0 -0.00000000000E+00 -0.00000000000E+00 -0.10000000000E+04  0.10000000000E+04  0.00000000000E+00 0.  1.
    9000005    2    1    2  501    0 -0.94440838674E+01 -0.33645741240E+02 -0.83921385534E+03  0.83994561144E+03  0.27401772159E+01 0.  0.
         13    1    3    3    0    0 -0.18969757132E+01 -0.11008839287E+02 -0.25443172737E+03  0.25467684809E+03  0.00000000000E+00 0.  1.
          1    1    3    3  501    0 -0.75471081542E+01 -0.22636901953E+02 -0.58478212796E+03  0.58526876335E+03  0.00000000000E+00 0.  1.
         -3    1    1    2    0  502  0.94440838674E+01  0.33645741240E+02 -0.15851709900E+03  0.16232343422E+03  0.00000000000E+00 0. -1.
<mgrwt>
<rscale>  1 0.30000000E+03</rscale>
<asrwt>0</asrwt>
<pdfrwt beam="1">  1       21 0.82510926E-02 0.30000000E+03</pdfrwt>
<pdfrwt beam="2">0</pdfrwt>
<totfact> 0.12098360E+04</totfact>
</mgrwt>
</event>
<event>
 6    1  0.1273846E-001  0.3000000E+03  0.7818608E-02  0.1093470E+00
         21   -1    0    0  501  502  0.00000000000E+00  0.00000000000E+00  0.52300489476E+01  0.52300489476E+01  0.00000000000E+00 0. -1.
         13   -1    0    0    0    0 -0.00000000000E+00 -0.00000000000E+00 -0.10000000000E+04  0.10000000000E+04  0.00000000000E+00 0.  1.
    9000005    2    1    2  501    0 -0.41077963986E+02  0.93992996862E+01 -0.90579978005E+03  0.90678495111E+03  0.31559567498E+01 0.  0.
         13    1    3    3    0    0 -0.10801120002E+02  0.30149452465E+01 -0.21426291339E+03  0.21455617013E+03  0.00000000000E+00 0.  1.
          1    1    3    3  501    0 -0.30276843985E+02  0.63843544397E+01 -0.69153686666E+03  0.69222878098E+03  0.00000000000E+00 0.  1.
         -1    1    1    2    0  502  0.41077963986E+02 -0.93992996862E+01 -0.88970171003E+02  0.98445097837E+02  0.00000000000E+00 0. -1.
<mgrwt>
<rscale>  1 0.30000000E+03</rscale>
<asrwt>0</asrwt>
<pdfrwt beam="1">  1       21 0.19018400E-01 0.30000000E+03</pdfrwt>
<pdfrwt beam="2">0</pdfrwt>
<totfact> 0.26402401E+03</totfact>
</mgrwt>
</event>
<event>
 6    1  0.1273846E-001  0.3000000E+03  0.7818608E-02  0.1093470E+00
         21   -1    0    0  501  502  0.00000000000E+00  0.00000000000E+00  0.20281229894E+01  0.20281229894E+01  0.00000000000E+00 0. -1.
         13   -1    0    0    0    0 -0.00000000000E+00 -0.00000000000E+00 -0.10000000000E+04  0.10000000000E+04  0.00000000000E+00 0.  1.
    9000005    2    1    2  501    0 -0.42194254516E+02  0.15145828319E+02 -0.46103430614E+03  0.46322230802E+03  0.35389238746E+01 0.  0.
         13    1    3    3    0    0 -0.20788942079E+02  0.56564744665E+01 -0.22594782431E+03  0.22697267485E+03  0.00000000000E+00 0.  1.
          1    1    3    3  501    0 -0.21405312437E+02  0.94893538522E+01 -0.23508648183E+03  0.23624963317E+03  0.00000000000E+00 0.  1.
         -3    1    1    2    0  502  0.42194254516E+02 -0.15145828319E+02 -0.53693757087E+03  0.53880581497E+03  0.00000000000E+00 0. -1.
<mgrwt>
<rscale>  1 0.30000000E+03</rscale>
<asrwt>0</asrwt>
<pdfrwt beam="1">  1       21 0.73750082E-02 0.30000000E+03</pdfrwt>
<pdfrwt beam="2">0</pdfrwt>
<totfact> 0.14731384E+04</totfact>
</mgrwt>
</event>
<event>
 6    1  0.1273846E-001  0.3000000E+03  0.7818608E-02  0.1093470E+00
         21   -1    0    0  501  502  0.00000000000E+00  0.00000000000E+00  0.23009715965E+01  0.23009715965E+01  0.00000000000E+00 0. -1.
         13   -1    0    0    0    0 -0.00000000000E+00 -0.00000000000E+00 -0.10000000000E+04  0.10000000000E+04  0.00000000000E+00 0.  1.
    9000005    2    1    2  501    0  0.16039459223E+02 -0.25584951647E+02 -0.88804019382E+03  0.88856041592E+03  0.35175134509E+01 0.  0.
         13    1    3    3    0    0  0.50218452974E+01 -0.76902298182E+01 -0.31947970242E+03  0.31961170007E+03  0.00000000000E+00 0.  1.
          3    1    3    3  501    0  0.11017613925E+02 -0.17894721829E+02 -0.56856049139E+03  0.56894871584E+03  0.00000000000E+00 0.  1.
         -1    1    1    2    0  502 -0.16039459223E+02  0.25584951647E+02 -0.10965883459E+03  0.11374055568E+03  0.00000000000E+00 0. -1.
<mgrwt>
<rscale>  1 0.30000000E+03</rscale>
<asrwt>0</asrwt>
<pdfrwt beam="1">  1       21 0.83671871E-02 0.30000000E+03</pdfrwt>
<pdfrwt beam="2">0</pdfrwt>
<totfact> 0.11804383E+04</totfact>
</mgrwt>
</event>
<event>
 6    1  0.1273846E-001  0.3000000E+03  0.7818608E-02  0.1093470E+00
         21   -1    0    0  501  502  0.00000000000E+00  0.00000000000E+00  0.22470500342E+01  0.22470500342E+01  0.00000000000E+00 0. -1.
         13   -1    0    0    0    0 -0.00000000000E+00 -0.00000000000E+00 -0.10000000000E+04  0.10000000000E+04  0.00000000000E+00 0.  1.
    9000005    2    1    2  501    0  0.39619294452E+02  0.21994326520E+02 -0.36595728638E+03  0.36882838958E+03  0.74971067795E+01 0.  0.
         13    1    3    3    0    0  0.35493391128E+02  0.17273160391E+02 -0.32621788796E+03  0.32859740308E+03  0.00000000000E+00 0.  1.
          3    1    3    3  501    0  0.41259033245E+01  0.47211661294E+01 -0.39739398420E+02  0.40230986499E+02  0.00000000000E+00 0.  1.
         -1    1    1    2    0  502 -0.39619294452E+02 -0.21994326520E+02 -0.63179566359E+03  0.63341866046E+03  0.00000000000E+00 0. -1.
<mgrwt>
<rscale>  1 0.30000000E+03</rscale>
<asrwt>0</asrwt>
<pdfrwt beam="1">  1       21 0.81711083E-02 0.30000000E+03</pdfrwt>
<pdfrwt beam="2">0</pdfrwt>
<totfact> 0.12307472E+04</totfact>
</mgrwt>
</event>
<event>
 6    1  0.1273846E-001  0.3000000E+03  0.7818608E-02  0.1093470E+00
         21   -1    0    0  501  502  0.00000000000E+00  0.00000000000E+00  0.16336651917E+01  0.16336651917E+01  0.00000000000E+00 0. -1.
         13   -1    0    0    0    0 -0.00000000000E+00 -0.00000000000E+00 -0.10000000000E+04  0.10000000000E+04  0.00000000000E+00 0.  1.
    9000005    2    1    2  501    0 -0.12264946256E+01  0.39751161668E+02 -0.58069212492E+03  0.58207031509E+03  0.45660290605E+01 0.  0.
         13    1    3    3    0    0 -0.72469224746E+00  0.14612468354E+02 -0.24636571021E+03  0.24679974185E+03  0.00000000000E+00 0.  1.
          3    1    3    3  501    0 -0.50180237815E+00  0.25138693314E+02 -0.33432641471E+03  0.33527057324E+03  0.00000000000E+00 0.  1.
         -1    1    1    2    0  502  0.12264946256E+01 -0.39751161668E+02 -0.41767420989E+03  0.41956335010E+03  0.00000000000E+00 0. -1.
<mgrwt>
<rscale>  1 0.30000000E+03</rscale>
<asrwt>0</asrwt>
<pdfrwt beam="1">  1       21 0.59406132E-02 0.30000000E+03</pdfrwt>
<pdfrwt beam="2">0</pdfrwt>
<totfact> 0.21436201E+04</totfact>
</mgrwt>
</event>
<event>
 6    1  0.1273846E-001  0.3000000E+03  0.7818608E-02  0.1093470E+00
         21   -1    0    0  501  502  0.00000000000E+00  0.00000000000E+00  0.11844102026E+01  0.11844102026E+01  0.00000000000E+00 0. -1.
         13   -1    0    0    0    0 -0.00000000000E+00 -0.00000000000E+00 -0.10000000000E+04  0.10000000000E+04  0.00000000000E+00 0.  1.
    9000005    2    1    2  501    0  0.11298394309E+02  0.32178697123E+02 -0.55688658041E+03  0.55794139378E+03  0.35795528296E+01 0.  0.
         13    1    3    3    0    0  0.30939428419E+01  0.85059649383E+01 -0.12350736638E+03  0.12383857829E+03  0.00000000000E+00 0.  1.
          3    1    3    3  501    0  0.82044514675E+01  0.23672732184E+02 -0.43337921402E+03  0.43410281549E+03  0.00000000000E+00 0.  1.
         -3    1    1    2    0  502 -0.11298394309E+02 -0.32178697123E+02 -0.44192900939E+03  0.44324301642E+03  0.00000000000E+00 0. -1.
<mgrwt>
<rscale>  1 0.30000000E+03</rscale>
<asrwt>0</asrwt>
<pdfrwt beam="1">  1       21 0.43069553E-02 0.30000000E+03</pdfrwt>
<pdfrwt beam="2">0</pdfrwt>
<totfact> 0.37115151E+04</totfact>
</mgrwt>
</event>
<event>
 6    1  0.1273846E-001  0.3000000E+03  0.7818608E-02  0.1093470E+00
         21   -1    0    0  501  502  0.00000000000E+00  0.00000000000E+00  0.14873041282E+01  0.14873041282E+01  0.00000000000E+00 0. -1.
         13   -1    0    0    0    0 -0.00000000000E+00 -0.00000000000E+00 -0.10000000000E+04  0.10000000000E+04  0.00000000000E+00 0.  1.
    9000005    2    1    2  501    0  0.29202216955E+02  0.24624455757E+02 -0.56211562969E+03  0.56342163249E+03  0.32896076614E+01 0.  0.
         13    1    3    3    0    0  0.72238396013E+01  0.70082634031E+01 -0.16737718035E+03  0.16767951609E+03  0.00000000000E+00 0.  1.
          1    1    3    3  501    0  0.21978377354E+02  0.17616192354E+02 -0.39473844933E+03  0.39574211639E+03  0.00000000000E+00 0.  1.
         -1    1    1    2    0  502 -0.29202216955E+02 -0.24624455757E+02 -0.43639706618E+03  0.43806567164E+03  0.00000000000E+00 0. -1.
<mgrwt>
<rscale>  1 0.30000000E+03</rscale>
<asrwt>0</asrwt>
<pdfrwt beam="1">  1       21 0.54083901E-02 0.30000000E+03</pdfrwt>
<pdfrwt beam="2">0</pdfrwt>
<totfact> 0.25188832E+04</totfact>
</mgrwt>
</event>
<event>
 6    1  0.1273846E-001  0.3000000E+03  0.7818608E-02  0.1093470E+00
         21   -1    0    0  501  502  0.00000000000E+00  0.00000000000E+00  0.22994136784E+01  0.22994136784E+01  0.00000000000E+00 0. -1.
         13   -1    0    0    0    0 -0.00000000000E+00 -0.00000000000E+00 -0.10000000000E+04  0.10000000000E+04  0.00000000000E+00 0.  1.
    9000005    2    1    2  501    0 -0.42586895932E+02 -0.50677657496E+01 -0.72242069671E+03  0.72369872527E+03  0.29758987378E+01 0.  0.
         13    1    3    3    0    0 -0.22355015975E+02 -0.41330171779E+01 -0.37766906764E+03  0.37835268364E+03  0.00000000000E+00 0.  1.
          3    1    3    3  501    0 -0.20231879957E+02 -0.93474857171E+00 -0.34475162907E+03  0.34534604163E+03  0.00000000000E+00 0.  1.
         -1    1    1    2    0  502  0.42586895932E+02  0.50677657496E+01 -0.27527988961E+03  0.27860068840E+03  0.00000000000E+00 0. -1.
<mgrwt>
<rscale>  1 0.30000000E+03</rscale>
<asrwt>0</asrwt>
<pdfrwt beam="1">  1       21 0.83615219E-02 0.30000000E+03</pdfrwt>
<pdfrwt beam="2">0</pdfrwt>
<totfact> 0.11818474E+04</totfact>
</mgrwt>
</event>
<event>
 6    1  0.1273846E-001  0.3000000E+03  0.7818608E-02  0.1093470E+00
         21   -1    0    0  501  502  0.00000000000E+00  0.00000000000E+00  0.16577879978E+01  0.16577879978E+01  0.00000000000E+00 0. -1.
         13   -1    0    0    0    0 -0.00000000000E+00 -0.00000000000E+00 -0.10000000000E+04  0.10000000000E+04  0.00000000000E+00 0.  1.
    9000005    2    1    2  501    0  0.36483752436E+02 -0.42946890679E+00 -0.29411884468E+03  0.29648986493E+03  0.83124351032E+01 0.  0.
         13    1    3    3    0    0  0.33131577293E+02  0.20931483298E+01 -0.26458677114E+03  0.26666128731E+03  0.00000000000E+00 0.  1.
          3    1    3    3  501    0  0.33521751427E+01 -0.25226172365E+01 -0.29532073534E+02  0.29828577625E+02  0.00000000000E+00 0.  1.
         -1    1    1    2    0  502 -0.36483752436E+02  0.42946890679E+00 -0.70422336732E+03  0.70516792306E+03  0.00000000000E+00 0. -1.
<mgrwt>
<rscale>  1 0.30000000E+03</rscale>
<asrwt>0</asrwt>
<pdfrwt beam="1">  1       21 0.60283327E-02 0.30000000E+03</pdfrwt>
<pdfrwt beam="2">0</pdfrwt>
<totfact> 0.20901140E+04</totfact>
</mgrwt>
</event>
<event>
 6    1  0.1273846E-001  0.3000000E+03  0.7818608E-02  0.1093470E+00
         21   -1    0    0  501  502  0.00000000000E+00  0.00000000000E+00  0.96303314457E+00  0.96303314457E+00  0.00000000000E+00 0. -1.
         13   -1    0    0    0    0 -0.00000000000E+00 -0.00000000000E+00 -0.10000000000E+04  0.10000000000E+04  0.00000000000E+00 0.  1.
    9000005    2    1    2  501    0  0.13614871131E+02 -0.27468550390E+02 -0.57041008794E+03  0.57124116111E+03  0.29849197235E+01 0.  0.
         13    1    3    3    0    0  0.11358317645E+02 -0.24971501065E+02 -0.51075081861E+03  0.51148703400E+03  0.00000000000E+00 0.  1.
          3    1    3    3  501    0  0.22565534860E+01 -0.24970493245E+01 -0.59659269333E+02  0.59754127107E+02  0.00000000000E+00 0.  1.
         -1    1    1    2    0  502 -0.13614871131E+02  0.27468550390E+02 -0.42862687892E+03  0.42972187203E+03  0.00000000000E+00 0. -1.
<mgrwt>
<rscale>  1 0.30000000E+03</rscale>
<asrwt>0</asrwt>
<pdfrwt beam="1">  1       21 0.35019461E-02 0.30000000E+03</pdfrwt>
<pdfrwt beam="2">0</pdfrwt>
<totfact> 0.52567854E+04</totfact>
</mgrwt>
</event>
<event>
 6    1  0.1273846E-001  0.3000000E+03  0.7818608E-02  0.1093470E+00
         21   -1    0    0  501  502  0.00000000000E+00  0.00000000000E+00  0.12047000710E+01  0.12047000710E+01  0.00000000000E+00 0. -1.
         13   -1    0    0    0    0 -0.00000000000E+00 -0.00000000000E+00 -0.10000000000E+04  0.10000000000E+04  0.00000000000E+00 0.  1.
    9000005    2    1    2  501    0 -0.97759127759E+01  0.31197496855E+02 -0.66585875871E+03  0.66666682066E+03  0.28126393419E+01 0.  0.
         13    1    3    3    0    0 -0.62981912244E+01  0.23866927447E+02 -0.49185981168E+03  0.49247880338E+03  0.00000000000E+00 0.  1.
          1    1    3    3  501    0 -0.34777215514E+01  0.73305694083E+01 -0.17399894703E+03  0.17418801728E+03  0.00000000000E+00 0.  1.
         -3    1    1    2    0  502  0.97759127759E+01 -0.31197496855E+02 -0.33293654122E+03  0.33453787941E+03  0.00000000000E+00 0. -1.
<mgrwt>
<rscale>  1 0.30000000E+03</rscale>
<asrwt>0</asrwt>
<pdfrwt beam="1">  1       21 0.43807368E-02 0.30000000E+03</pdfrwt>
<pdfrwt beam="2">0</pdfrwt>
<totfact> 0.36063408E+04</totfact>
</mgrwt>
</event>
<event>
 6    1  0.1273846E-001  0.3000000E+03  0.7818608E-02  0.1093470E+00
         21   -1    0    0  501  502  0.00000000000E+00  0.00000000000E+00  0.10699301624E+01  0.10699301624E+01  0.00000000000E+00 0. -1.
         13   -1    0    0    0    0 -0.00000000000E+00 -0.00000000000E+00 -0.10000000000E+04  0.10000000000E+04  0.00000000000E+00 0.  1.
    9000005    2    1    2  501    0 -0.27623202037E+02 -0.13344816088E+02 -0.67062626716E+03  0.67133592788E+03  0.33485001470E+01 0.  0.
         13    1    3    3    0    0 -0.69342935363E+01 -0.27602185129E+01 -0.19385597242E+03  0.19399959092E+03  0.00000000000E+00 0.  1.
          3    1    3    3  501    0 -0.20688908500E+02 -0.10584597575E+02 -0.47677029474E+03  0.47733633696E+03  0.00000000000E+00 0.  1.
         -3    1    1    2    0  502  0.27623202037E+02  0.13344816088E+02 -0.32830380268E+03  0.32973400228E+03  0.00000000000E+00 0. -1.
<mgrwt>
<rscale>  1 0.30000000E+03</rscale>
<asrwt>0</asrwt>
<pdfrwt beam="1">  1       21 0.38906633E-02 0.30000000E+03</pdfrwt>
<pdfrwt beam="2">0</pdfrwt>
<totfact> 0.44054910E+04</totfact>
</mgrwt>
</event>
<event>
 6    1  0.1273846E-001  0.3000000E+03  0.7818608E-02  0.1093470E+00
         21   -1    0    0  501  502  0.00000000000E+00  0.00000000000E+00  0.44156413921E+01  0.44156413921E+01  0.00000000000E+00 0. -1.
         13   -1    0    0    0    0 -0.00000000000E+00 -0.00000000000E+00 -0.10000000000E+04  0.10000000000E+04  0.00000000000E+00 0.  1.
    9000005    2    1    2  501    0  0.62002507802E+02  0.21031553969E+02 -0.41404211601E+03  0.41919942737E+03  0.32632553955E+01 0.  0.
         13    1    3    3    0    0  0.14835839450E+02  0.39187192905E+01 -0.91372088567E+02  0.92651589637E+02  0.00000000000E+00 0.  1.
          3    1    3    3  501    0  0.47166668352E+02  0.17112834679E+02 -0.32267002745E+03  0.32654783773E+03  0.00000000000E+00 0.  1.
         -3    1    1    2    0  502 -0.62002507802E+02 -0.21031553969E+02 -0.58154224260E+03  0.58521621403E+03  0.00000000000E+00 0. -1.
<mgrwt>
<rscale>  1 0.30000000E+03</rscale>
<asrwt>0</asrwt>
<pdfrwt beam="1">  1       21 0.16056912E-01 0.30000000E+03</pdfrwt>
<pdfrwt beam="2">0</pdfrwt>
<totfact> 0.36285674E+03</totfact>
</mgrwt>
</event>
<event>
 6    1  0.1273846E-001  0.3000000E+03  0.7818608E-02  0.1093470E+00
         21   -1    0    0  501  502  0.00000000000E+00  0.00000000000E+00  0.36640389667E+01  0.36640389667E+01  0.00000000000E+00 0. -1.
         13   -1    0    0    0    0 -0.00000000000E+00 -0.00000000000E+00 -0.10000000000E+04  0.10000000000E+04  0.00000000000E+00 0.  1.
    9000005    2    1    2  501    0 -0.31395812612E+02 -0.51429954955E+02 -0.45725725815E+03  0.46122824994E+03  0.40695324507E+01 0.  0.
         13    1    3    3    0    0 -0.55324997574E+00 -0.19163392358E+00 -0.48581601070E+01  0.48933146967E+01  0.00000000000E+00 0.  1.
          1    1    3    3  501    0 -0.30842562636E+02 -0.51238321032E+02 -0.45239909804E+03  0.45633493524E+03  0.00000000000E+00 0.  1.
         -1    1    1    2    0  502  0.31395812612E+02  0.51429954955E+02 -0.53907870288E+03  0.54243578903E+03  0.00000000000E+00 0. -1.
<mgrwt>
<rscale>  1 0.30000000E+03</rscale>
<asrwt>0</asrwt>
<pdfrwt beam="1">  1       21 0.13323806E-01 0.30000000E+03</pdfrwt>
<pdfrwt beam="2">0</pdfrwt>
<totfact> 0.51209797E+03</totfact>
</mgrwt>
</event>
<event>
 6    1  0.1273846E-001  0.3000000E+03  0.7818608E-02  0.1093470E+00
         21   -1    0    0  501  502  0.00000000000E+00  0.00000000000E+00  0.12667064021E+01  0.12667064021E+01  0.00000000000E+00 0. -1.
         13   -1    0    0    0    0 -0.00000000000E+00 -0.00000000000E+00 -0.10000000000E+04  0.10000000000E+04  0.00000000000E+00 0.  1.
    9000005    2    1    2  501    0 -0.11606709503E+02  0.28965538142E+02 -0.26173451724E+03  0.26360762901E+03  0.32103663736E+01 0.  0.
         13    1    3    3    0    0 -0.68953591563E+01  0.13124157047E+02 -0.12806934240E+03  0.12892457461E+03  0.00000000000E+00 0.  1.
          1    1    3    3  501    0 -0.47113503471E+01  0.15841381095E+02 -0.13366517484E+03  0.13468305440E+03  0.00000000000E+00 0.  1.
         -1    1    1    2    0  502  0.11606709503E+02 -0.28965538142E+02 -0.73699877636E+03  0.73765907739E+03  0.00000000000E+00 0. -1.
<mgrwt>
<rscale>  1 0.30000000E+03</rscale>
<asrwt>0</asrwt>
<pdfrwt beam="1">  1       21 0.46062148E-02 0.30000000E+03</pdfrwt>
<pdfrwt beam="2">0</pdfrwt>
<totfact> 0.33119724E+04</totfact>
</mgrwt>
</event>
<event>
 6    1  0.1273846E-001  0.3000000E+03  0.7818608E-02  0.1093470E+00
         21   -1    0    0  501  502  0.00000000000E+00  0.00000000000E+00  0.46115330931E+01  0.46115330931E+01  0.00000000000E+00 0. -1.
         13   -1    0    0    0    0 -0.00000000000E+00 -0.00000000000E+00 -0.10000000000E+04  0.10000000000E+04  0.00000000000E+00 0.  1.
    9000005    2    1    2  501    0  0.44169122726E+02  0.36319205679E+02 -0.76741132814E+03  0.76957202172E+03  0.71382043757E+01 0.  0.
         13    1    3    3    0    0  0.37553583731E+02  0.27757116567E+02 -0.60360543283E+03  0.60540915727E+03  0.00000000000E+00 0.  1.
          3    1    3    3  501    0  0.66155389958E+01  0.85620891117E+01 -0.16380589531E+03  0.16416286445E+03  0.00000000000E+00 0.  1.
         -1    1    1    2    0  502 -0.44169122726E+02 -0.36319205679E+02 -0.22797713877E+03  0.23503951137E+03  0.00000000000E+00 0. -1.
<mgrwt>
<rscale>  1 0.30000000E+03</rscale>
<asrwt>0</asrwt>
<pdfrwt beam="1">  1       21 0.16769247E-01 0.30000000E+03</pdfrwt>
<pdfrwt beam="2">0</pdfrwt>
<totfact> 0.33460330E+03</totfact>
</mgrwt>
</event>
<event>
 6    1  0.1273846E-001  0.3000000E+03  0.7818608E-02  0.1093470E+00
         21   -1    0    0  501  502  0.00000000000E+00  0.00000000000E+00  0.45164695549E+01  0.45164695549E+01  0.00000000000E+00 0. -1.
         13   -1    0    0    0    0 -0.00000000000E+00 -0.00000000000E+00 -0.10000000000E+04  0.10000000000E+04  0.00000000000E+00 0.  1.
    9000005    2    1    2  501    0 -0.36630875264E+02 -0.25881224848E+02 -0.87167459355E+03  0.87283385233E+03  0.32677091583E+01 0.  0.
         13    1    3    3    0    0 -0.51597621328E+01 -0.24218182487E+01 -0.10259986313E+03  0.10275806666E+03  0.00000000000E+00 0.  1.
          1    1    3    3  501    0 -0.31471113131E+02 -0.23459406599E+02 -0.76907473041E+03  0.77007578567E+03  0.00000000000E+00 0.  1.
         -1    1    1    2    0  502  0.36630875264E+02  0.25881224848E+02 -0.12380893690E+03  0.13168261722E+03  0.00000000000E+00 0. -1.
<mgrwt>
<rscale>  1 0.30000000E+03</rscale>
<asrwt>0</asrwt>
<pdfrwt beam="1">  1       21 0.16423560E-01 0.30000000E+03</pdfrwt>
<pdfrwt beam="2">0</pdfrwt>
<totfact> 0.34788756E+03</totfact>
</mgrwt>
</event>
<event>
 6    1  0.1273846E-001  0.3000000E+03  0.7818608E-02  0.1093470E+00
         21   -1    0    0  501  502  0.00000000000E+00  0.00000000000E+00  0.31814376917E+01  0.31814376917E+01  0.00000000000E+00 0. -1.
         13   -1    0    0    0    0 -0.00000000000E+00 -0.00000000000E+00 -0.10000000000E+04  0.10000000000E+04  0.00000000000E+00 0.  1.
    9000005    2    1    2  501    0 -0.26454971142E+02 -0.29369761953E+02 -0.85607712741E+03  0.85699457128E+03  0.30329368766E+01 0.  0.
         13    1    3    3    0    0 -0.18431876620E+02 -0.22270268254E+02 -0.61160484617E+03  0.61228766669E+03  0.00000000000E+00 0.  1.
          1    1    3    3  501    0 -0.80230945221E+01 -0.70994936985E+01 -0.24447228124E+03  0.24470690459E+03  0.00000000000E+00 0.  1.
         -3    1    1    2    0  502  0.26454971142E+02  0.29369761953E+02 -0.14074143489E+03  0.14618686641E+03  0.00000000000E+00 0. -1.
<mgrwt>
<rscale>  1 0.30000000E+03</rscale>
<asrwt>0</asrwt>
<pdfrwt beam="1">  1       21 0.11568889E-01 0.30000000E+03</pdfrwt>
<pdfrwt beam="2">0</pdfrwt>
<totfact> 0.66216989E+03</totfact>
</mgrwt>
</event>
<event>
 6    1  0.1273846E-001  0.3000000E+03  0.7818608E-02  0.1093470E+00
         21   -1    0    0  501  502  0.00000000000E+00  0.00000000000E+00  0.37836459750E+01  0.37836459750E+01  0.00000000000E+00 0. -1.
         13   -1    0    0    0    0 -0.00000000000E+00 -0.00000000000E+00 -0.10000000000E+04  0.10000000000E+04  0.00000000000E+00 0.  1.
    9000005    2    1    2  501    0 -0.51132400495E+02 -0.31024112875E+02 -0.38320006539E+03  0.38785671192E+03  0.36770787220E+01 0.  0.
         13    1    3    3    0    0 -0.35832022596E+02 -0.22496537016E+02 -0.28074116947E+03  0.28391131055E+03  0.00000000000E+00 0.  1.
          3    1    3    3  501    0 -0.15300377899E+02 -0.85275758598E+01 -0.10245889592E+03  0.10394540138E+03  0.00000000000E+00 0.  1.
         -3    1    1    2    0  502  0.51132400495E+02  0.31024112875E+02 -0.61301628863E+03  0.61592693405E+03  0.00000000000E+00 0. -1.
<mgrwt>
<rscale>  1 0.30000000E+03</rscale>
<asrwt>0</asrwt>
<pdfrwt beam="1">  1       21 0.13758742E-01 0.30000000E+03</pdfrwt>
<pdfrwt beam="2">0</pdfrwt>
<totfact> 0.48283299E+03</totfact>
</mgrwt>
</event>
<event>
 6    1  0.1273846E-001  0.3000000E+03  0.7818608E-02  0.1093470E+00
         21   -1    0    0  501  502  0.00000000000E+00  0.00000000000E+00  0.25050884147E+01  0.25050884147E+01  0.00000000000E+00 0. -1.
         13   -1    0    0    0    0 -0.00000000000E+00 -0.00000000000E+00 -0.10000000000E+04  0.10000000000E+04  0.00000000000E+00 0.  1.
    9000005    2    1    2  501    0  0.38744352392E+02 -0.31177724936E+02 -0.55003873491E+03  0.55229379866E+03  0.35573538438E+01 0.  0.
         13    1    3    3    0    0  0.17659725203E+02 -0.14853039965E+02 -0.27411650834E+03  0.27508605714E+03  0.00000000000E+00 0.  1.
          1    1    3    3  501    0  0.21084627189E+02 -0.16324684971E+02 -0.27592222657E+03  0.27720774152E+03  0.00000000000E+00 0.  1.
         -1    1    1    2    0  502 -0.38744352392E+02  0.31177724936E+02 -0.44745617668E+03  0.45021128975E+03  0.00000000000E+00 0. -1.
<mgrwt>
<rscale>  1 0.30000000E+03</rscale>
<asrwt>0</asrwt>
<pdfrwt beam="1">  1       21 0.91094316E-02 0.30000000E+03</pdfrwt>
<pdfrwt beam="2">0</pdfrwt>
<totfact> 0.10158116E+04</totfact>
</mgrwt>
</event>
<event>
 6    1  0.1273846E-001  0.3000000E+03  0.7818608E-02  0.1093470E+00
         21   -1    0    0  501  502  0.00000000000E+00  0.00000000000E+00  0.35366599755E+01  0.35366599755E+01  0.00000000000E+00 0. -1.
         13   -1    0    0    0    0 -0.00000000000E+00 -0.00000000000E+00 -0.10000000000E+04  0.10000000000E+04  0.00000000000E+00 0.  1.
    9000005    2    1    2  501    0  0.50750598953E+02 -0.62325370085E+01 -0.75403682100E+03  0.75577652408E+03  0.34869926598E+01 0.  0.
         13    1    3    3    0    0  0.50388183801E+02 -0.64216542055E+01 -0.75027934535E+03  0.75199687684E+03  0.00000000000E+00 0.  1.
          1    1    3    3  501    0  0.36241515214E+00  0.18911719697E+00 -0.37574756475E+01  0.37796472452E+01  0.00000000000E+00 0.  1.
         -3    1    1    2    0  502 -0.50750598953E+02  0.62325370085E+01 -0.24242651903E+03  0.24776013589E+03  0.00000000000E+00 0. -1.
<mgrwt>
<rscale>  1 0.30000000E+03</rscale>
<asrwt>0</asrwt>
<pdfrwt beam="1">  1       21 0.12860609E-01 0.30000000E+03</pdfrwt>
<pdfrwt beam="2">0</pdfrwt>
<totfact> 0.54629786E+03</totfact>
</mgrwt>
</event>
<event>
 6    1  0.1273846E-001  0.3000000E+03  0.7818608E-02  0.1093470E+00
         21   -1    0    0  501  502  0.00000000000E+00  0.00000000000E+00  0.11578824673E+01  0.11578824673E+01  0.00000000000E+00 0. -1.
         13   -1    0    0    0    0 -0.00000000000E+00 -0.00000000000E+00 -0.10000000000E+04  0.10000000000E+04  0.00000000000E+00 0.  1.
    9000005    2    1    2  501    0  0.20606031061E+02  0.24143208268E+02 -0.67838959032E+03  0.67913719179E+03  0.27177211541E+01 0.  0.
         13    1    3    3    0    0  0.13475688224E+02  0.17708097209E+02 -0.47318543385E+03  0.47370837621E+03  0.00000000000E+00 0.  1.
          3    1    3    3  501    0  0.71303428371E+01  0.64351110588E+01 -0.20520415647E+03  0.20542881559E+03  0.00000000000E+00 0.  1.
         -3    1    1    2    0  502 -0.20606031061E+02 -0.24143208268E+02 -0.32045252722E+03  0.32202069067E+03  0.00000000000E+00 0. -1.
<mgrwt>
<rscale>  1 0.30000000E+03</rscale>
<asrwt>0</asrwt>
<pdfrwt beam="1">  1       21 0.42104906E-02 0.30000000E+03</pdfrwt>
<pdfrwt beam="2">0</pdfrwt>
<totfact> 0.38563652E+04</totfact>
</mgrwt>
</event>
<event>
 6    1  0.1273846E-001  0.3000000E+03  0.7818608E-02  0.1093470E+00
         21   -1    0    0  501  502  0.00000000000E+00  0.00000000000E+00  0.15876890514E+01  0.15876890514E+01  0.00000000000E+00 0. -1.
         13   -1    0    0    0    0 -0.00000000000E+00 -0.00000000000E+00 -0.10000000000E+04  0.10000000000E+04  0.00000000000E+00 0.  1.
    9000005    2    1    2  501    0 -0.35904924920E+02 -0.78240863620E+01 -0.33538423845E+03  0.33754205441E+03  0.10083210589E+02 0.  0.
         13    1    3    3    0    0 -0.24204677743E+02 -0.66411099362E+01 -0.18436649907E+03  0.18606712967E+03  0.00000000000E+00 0.  1.
          1    1    3    3  501    0 -0.11700247177E+02 -0.11829764258E+01 -0.15101773938E+03  0.15147492474E+03  0.00000000000E+00 0.  1.
         -1    1    1    2    0  502  0.35904924920E+02  0.78240863620E+01 -0.66302807250E+03  0.66404563464E+03  0.00000000000E+00 0. -1.
<mgrwt>
<rscale>  1 0.30000000E+03</rscale>
<asrwt>0</asrwt>
<pdfrwt beam="1">  1       21 0.57734269E-02 0.30000000E+03</pdfrwt>
<pdfrwt beam="2">0</pdfrwt>
<totfact> 0.22516904E+04</totfact>
</mgrwt>
</event>
<event>
 6    1  0.1273846E-001  0.3000000E+03  0.7818608E-02  0.1093470E+00
         21   -1    0    0  501  502  0.00000000000E+00  0.00000000000E+00  0.97606523243E+00  0.97606523243E+00  0.00000000000E+00 0. -1.
         13   -1    0    0    0    0 -0.00000000000E+00 -0.00000000000E+00 -0.10000000000E+04  0.10000000000E+04  0.00000000000E+00 0.  1.
    9000005    2    1    2  501    0 -0.28221731175E+02  0.11106746134E+02 -0.38982535757E+03  0.39102300771E+03  0.39188307670E+01 0.  0.
         13    1    3    3    0    0 -0.17279150808E+02  0.59500210330E+01 -0.21166746689E+03  0.21245490896E+03  0.00000000000E+00 0.  1.
          1    1    3    3  501    0 -0.10942580367E+02  0.51567251011E+01 -0.17815789068E+03  0.17856809874E+03  0.00000000000E+00 0.  1.
         -3    1    1    2    0  502  0.28221731175E+02 -0.11106746134E+02 -0.60919857720E+03  0.60995305752E+03  0.00000000000E+00 0. -1.
<mgrwt>
<rscale>  1 0.30000000E+03</rscale>
<asrwt>0</asrwt>
<pdfrwt beam="1">  1       21 0.35493356E-02 0.30000000E+03</pdfrwt>
<pdfrwt beam="2">0</pdfrwt>
<totfact> 0.51397274E+04</totfact>
</mgrwt>
</event>
<event>
 6    1  0.1273846E-001  0.3000000E+03  0.7818608E-02  0.1093470E+00
         21   -1    0    0  501  502  0.00000000000E+00  0.00000000000E+00  0.13561790028E+01  0.13561790028E+01  0.00000000000E+00 0. -1.
         13   -1    0    0    0    0 -0.00000000000E+00 -0.00000000000E+00 -0.10000000000E+04  0.10000000000E+04  0.00000000000E+00 0.  1.
    9000005    2    1    2  501    0 -0.34262186271E+02  0.73483287631E+01 -0.64377942500E+03  0.64476588905E+03  0.65733007443E+01 0.  0.
         13    1    3    3    0    0 -0.58014569137E+01 -0.26315870262E+00 -0.14594933639E+03  0.14606483131E+03  0.00000000000E+00 0.  1.
          3    1    3    3  501    0 -0.28460729357E+02  0.76114874657E+01 -0.49783008862E+03  0.49870105774E+03  0.00000000000E+00 0.  1.
         -3    1    1    2    0  502  0.34262186271E+02 -0.73483287631E+01 -0.35486439599E+03  0.35659028995E+03  0.00000000000E+00 0. -1.
<mgrwt>
<rscale>  1 0.30000000E+03</rscale>
<asrwt>0</asrwt>
<pdfrwt beam="1">  1       21 0.49315704E-02 0.30000000E+03</pdfrwt>
<pdfrwt beam="2">0</pdfrwt>
<totfact> 0.29489110E+04</totfact>
</mgrwt>
</event>
<event>
 6    1  0.1273846E-001  0.3000000E+03  0.7818608E-02  0.1093470E+00
         21   -1    0    0  501  502  0.00000000000E+00  0.00000000000E+00  0.13825178827E+01  0.13825178827E+01  0.00000000000E+00 0. -1.
         13   -1    0    0    0    0 -0.00000000000E+00 -0.00000000000E+00 -0.10000000000E+04  0.10000000000E+04  0.00000000000E+00 0.  1.
    9000005    2    1    2  501    0  0.17463579777E+02  0.26354867449E+02 -0.75429260520E+03  0.75502058670E+03  0.99597399458E+01 0.  0.
         13    1    3    3    0    0 -0.82552344416E-01  0.62019069491E+01 -0.17968118003E+03  0.17978820017E+03  0.00000000000E+00 0.  1.
          1    1    3    3  501    0  0.17546132121E+02  0.20152960500E+02 -0.57461142517E+03  0.57523238653E+03  0.00000000000E+00 0.  1.
         -1    1    1    2    0  502 -0.17463579777E+02 -0.26354867449E+02 -0.24432487691E+03  0.24636193118E+03  0.00000000000E+00 0. -1.
<mgrwt>
<rscale>  1 0.30000000E+03</rscale>
<asrwt>0</asrwt>
<pdfrwt beam="1">  1       21 0.50273484E-02 0.30000000E+03</pdfrwt>
<pdfrwt beam="2">0</pdfrwt>
<totfact> 0.28538010E+04</totfact>
</mgrwt>
</event>
<event>
 6    1  0.1273846E-001  0.3000000E+03  0.7818608E-02  0.1093470E+00
         21   -1    0    0  501  502  0.00000000000E+00  0.00000000000E+00  0.10935914560E+02  0.10935914560E+02  0.00000000000E+00 0. -1.
         13   -1    0    0    0    0 -0.00000000000E+00 -0.00000000000E+00 -0.10000000000E+04  0.10000000000E+04  0.00000000000E+00 0.  1.
    9000005    2    1    2  501    0  0.75265559998E+01 -0.35991888164E+02 -0.96771050972E+03  0.96841485795E+03  0.34119536013E+01 0.  0.
         13    1    3    3    0    0  0.54155471684E+01 -0.27903609698E+02 -0.70975236802E+03  0.71032131004E+03  0.00000000000E+00 0.  1.
          1    1    3    3  501    0  0.21110088314E+01 -0.80882784666E+01 -0.25795814169E+03  0.25809354791E+03  0.00000000000E+00 0.  1.
         -1    1    1    2    0  502 -0.75265559998E+01  0.35991888164E+02 -0.21353575723E+02  0.42521056607E+02  0.00000000000E+00 0. -1.
<mgrwt>
<rscale>  1 0.30000000E+03</rscale>
<asrwt>0</asrwt>
<pdfrwt beam="1">  1       21 0.39767046E-01 0.30000000E+03</pdfrwt>
<pdfrwt beam="2">0</pdfrwt>
<totfact> 0.61142557E+02</totfact>
</mgrwt>
</event>
<event>
 6    1  0.1273846E-001  0.3000000E+03  0.7818608E-02  0.1093470E+00
         21   -1    0    0  501  502  0.00000000000E+00  0.00000000000E+00  0.21178712508E+01  0.21178712508E+01  0.00000000000E+00 0. -1.
         13   -1    0    0    0    0 -0.00000000000E+00 -0.00000000000E+00 -0.10000000000E+04  0.10000000000E+04  0.00000000000E+00 0.  1.
    9000005    2    1    2  501    0 -0.32615422602E+01  0.39908610402E+02 -0.74523953907E+03  0.74632183343E+03  0.33126465846E+01 0.  0.
         13    1    3    3    0    0 -0.37479710198E+01  0.38589049494E+02 -0.71795731902E+03  0.71900338939E+03  0.00000000000E+00 0.  1.
          3    1    3    3  501    0  0.48642875959E+00  0.13195609083E+01 -0.27282220048E+02  0.27318444039E+02  0.00000000000E+00 0.  1.
         -1    1    1    2    0  502  0.32615422602E+01 -0.39908610402E+02 -0.25264258968E+03  0.25579603782E+03  0.00000000000E+00 0. -1.
<mgrwt>
<rscale>  1 0.30000000E+03</rscale>
<asrwt>0</asrwt>
<pdfrwt beam="1">  1       21 0.77013662E-02 0.30000000E+03</pdfrwt>
<pdfrwt beam="2">0</pdfrwt>
<totfact> 0.13655681E+04</totfact>
</mgrwt>
</event>
<event>
 6    1  0.1273846E-001  0.3000000E+03  0.7818608E-02  0.1093470E+00
         21   -1    0    0  501  502  0.00000000000E+00  0.00000000000E+00  0.12435864199E+02  0.12435864199E+02  0.00000000000E+00 0. -1.
         13   -1    0    0    0    0 -0.00000000000E+00 -0.00000000000E+00 -0.10000000000E+04  0.10000000000E+04  0.00000000000E+00 0.  1.
    9000005    2    1    2  501    0 -0.41052512494E+02 -0.45440392058E+02 -0.91667669464E+03  0.91876000110E+03  0.85813236897E+01 0.  0.
         13    1    3    3    0    0 -0.16913794919E+02 -0.12957825106E+02 -0.29717666742E+03  0.29793951290E+03  0.00000000000E+00 0.  1.
          1    1    3    3  501    0 -0.24138717576E+02 -0.32482566952E+02 -0.61950002722E+03  0.62082048820E+03  0.00000000000E+00 0.  1.
         -3    1    1    2    0  502  0.41052512494E+02  0.45440392058E+02 -0.70887441160E+02  0.93675863096E+02  0.00000000000E+00 0. -1.
<mgrwt>
<rscale>  1 0.30000000E+03</rscale>
<asrwt>0</asrwt>
<pdfrwt beam="1">  1       21 0.45221420E-01 0.30000000E+03</pdfrwt>
<pdfrwt beam="2">0</pdfrwt>
<totfact> 0.46619510E+02</totfact>
</mgrwt>
</event>
<event>
 6    1  0.1273846E-001  0.3000000E+03  0.7818608E-02  0.1093470E+00
         21   -1    0    0  501  502  0.00000000000E+00  0.00000000000E+00  0.11099958100E+01  0.11099958100E+01  0.00000000000E+00 0. -1.
         13   -1    0    0    0    0 -0.00000000000E+00 -0.00000000000E+00 -0.10000000000E+04  0.10000000000E+04  0.00000000000E+00 0.  1.
    9000005    2    1    2  501    0  0.22902925499E+02  0.20736665972E+02 -0.31924552343E+03  0.32076363289E+03  0.41292423308E+01 0.  0.
         13    1    3    3    0    0  0.51566799011E+01  0.41113073995E+01 -0.52671813180E+02  0.53083086759E+02  0.00000000000E+00 0.  1.
          3    1    3    3  501    0  0.17746245598E+02  0.16625358572E+02 -0.26657371025E+03  0.26768054613E+03  0.00000000000E+00 0.  1.
         -1    1    1    2    0  502 -0.22902925499E+02 -0.20736665972E+02 -0.67964448076E+03  0.68034636292E+03  0.00000000000E+00 0. -1.
<mgrwt>
<rscale>  1 0.30000000E+03</rscale>
<asrwt>0</asrwt>
<pdfrwt beam="1">  1       21 0.40363569E-02 0.30000000E+03</pdfrwt>
<pdfrwt beam="2">0</pdfrwt>
<totfact> 0.41411342E+04</totfact>
</mgrwt>
</event>
<event>
 6    1  0.1273846E-001  0.3000000E+03  0.7818608E-02  0.1093470E+00
         21   -1    0    0  501  502  0.00000000000E+00  0.00000000000E+00  0.10996828642E+01  0.10996828642E+01  0.00000000000E+00 0. -1.
         13   -1    0    0    0    0 -0.00000000000E+00 -0.00000000000E+00 -0.10000000000E+04  0.10000000000E+04  0.00000000000E+00 0.  1.
    9000005    2    1    2  501    0  0.30052474893E+02 -0.59886944288E+01 -0.31229736323E+03  0.31381325639E+03  0.31782220596E+01 0.  0.
         13    1    3    3    0    0  0.18244880154E+02 -0.29794464285E+01 -0.20237074646E+03  0.20321336515E+03  0.00000000000E+00 0.  1.
          3    1    3    3  501    0  0.11807594739E+02 -0.30092480003E+01 -0.10992661677E+03  0.11059989124E+03  0.00000000000E+00 0.  1.
         -3    1    1    2    0  502 -0.30052474893E+02  0.59886944288E+01 -0.68660295391E+03  0.68728642648E+03  0.00000000000E+00 0. -1.
<mgrwt>
<rscale>  1 0.30000000E+03</rscale>
<asrwt>0</asrwt>
<pdfrwt beam="1">  1       21 0.39988552E-02 0.30000000E+03</pdfrwt>
<pdfrwt beam="2">0</pdfrwt>
<totfact> 0.42067596E+04</totfact>
</mgrwt>
</event>
<event>
 6    1  0.1273846E-001  0.3000000E+03  0.7818608E-02  0.1093470E+00
         21   -1    0    0  501  502  0.00000000000E+00  0.00000000000E+00  0.13085095697E+01  0.13085095697E+01  0.00000000000E+00 0. -1.
         13   -1    0    0    0    0 -0.00000000000E+00 -0.00000000000E+00 -0.10000000000E+04  0.10000000000E+04  0.00000000000E+00 0.  1.
    9000005    2    1    2  501    0  0.34736382847E+02 -0.59673454345E+01 -0.39859183544E+03  0.40017472960E+03  0.47050423795E+01 0.  0.
         13    1    3    3    0    0  0.11356569365E+02 -0.41688024755E+01 -0.14050506366E+03  0.14102490382E+03  0.00000000000E+00 0.  1.
          1    1    3    3  501    0  0.23379813482E+02 -0.17985429590E+01 -0.25808677178E+03  0.25914982578E+03  0.00000000000E+00 0.  1.
         -3    1    1    2    0  502 -0.34736382847E+02  0.59673454345E+01 -0.60009965499E+03  0.60113377997E+03  0.00000000000E+00 0. -1.
<mgrwt>
<rscale>  1 0.30000000E+03</rscale>
<asrwt>0</asrwt>
<pdfrwt beam="1">  1       21 0.47582267E-02 0.30000000E+03</pdfrwt>
<pdfrwt beam="2">0</pdfrwt>
<totfact> 0.31341165E+04</totfact>
</mgrwt>
</event>
<event>
 6    1  0.1273846E-001  0.3000000E+03  0.7818608E-02  0.1093470E+00
         21   -1    0    0  501  502  0.00000000000E+00  0.00000000000E+00  0.30591354354E+01  0.30591354354E+01  0.00000000000E+00 0. -1.
         13   -1    0    0    0    0 -0.00000000000E+00 -0.00000000000E+00 -0.10000000000E+04  0.10000000000E+04  0.00000000000E+00 0.  1.
    9000005    2    1    2  501    0 -0.72801404351E+00  0.43502614193E+02 -0.80769941675E+03  0.80888052432E+03  0.40431856298E+01 0.  0.
         13    1    3    3    0    0 -0.18378215079E+01  0.23272503999E+02 -0.40632049738E+03  0.40699058174E+03  0.00000000000E+00 0.  1.
          3    1    3    3  501    0  0.11098074644E+01  0.20230110194E+02 -0.40137891937E+03  0.40188994258E+03  0.00000000000E+00 0.  1.
         -3    1    1    2    0  502  0.72801404351E+00 -0.43502614193E+02 -0.18924144781E+03  0.19417861112E+03  0.00000000000E+00 0. -1.
<mgrwt>
<rscale>  1 0.30000000E+03</rscale>
<asrwt>0</asrwt>
<pdfrwt beam="1">  1       21 0.11124152E-01 0.30000000E+03</pdfrwt>
<pdfrwt beam="2">0</pdfrwt>
<totfact> 0.71069864E+03</totfact>
</mgrwt>
</event>
<event>
 6    1  0.1273846E-001  0.3000000E+03  0.7818608E-02  0.1093470E+00
         21   -1    0    0  501  502  0.00000000000E+00  0.00000000000E+00  0.19542365975E+01  0.19542365975E+01  0.00000000000E+00 0. -1.
         13   -1    0    0    0    0 -0.00000000000E+00 -0.00000000000E+00 -0.10000000000E+04  0.10000000000E+04  0.00000000000E+00 0.  1.
    9000005    2    1    2  501    0  0.31134694912E+02 -0.12689376630E+02 -0.82383871412E+03  0.82453246362E+03  0.36286602421E+01 0.  0.
         13    1    3    3    0    0  0.27477791371E+02 -0.10200867640E+02 -0.73387015872E+03  0.73445523797E+03  0.00000000000E+00 0.  1.
          1    1    3    3  501    0  0.36569035409E+01 -0.24885089898E+01 -0.89968555398E+02  0.90077225650E+02  0.00000000000E+00 0.  1.
         -3    1    1    2    0  502 -0.31134694912E+02  0.12689376630E+02 -0.17420704929E+03  0.17742177298E+03  0.00000000000E+00 0. -1.
<mgrwt>
<rscale>  1 0.30000000E+03</rscale>
<asrwt>0</asrwt>
<pdfrwt beam="1">  1       21 0.71063299E-02 0.30000000E+03</pdfrwt>
<pdfrwt beam="2">0</pdfrwt>
<totfact> 0.15717196E+04</totfact>
</mgrwt>
</event>
<event>
 6    1  0.1273846E-001  0.3000000E+03  0.7818608E-02  0.1093470E+00
         21   -1    0    0  501  502  0.00000000000E+00  0.00000000000E+00  0.15017909238E+01  0.15017909238E+01  0.00000000000E+00 0. -1.
         13   -1    0    0    0    0 -0.00000000000E+00 -0.00000000000E+00 -0.10000000000E+04  0.10000000000E+04  0.00000000000E+00 0.  1.
    9000005    2    1    2  501    0  0.36135403694E+02 -0.11566685856E+02 -0.40180138367E+03  0.40359991179E+03  0.29968743756E+01 0.  0.
         13    1    3    3    0    0  0.23244677894E+02 -0.73610774496E+01 -0.27306648527E+03  0.27415288780E+03  0.00000000000E+00 0.  1.
          1    1    3    3  501    0  0.12890725800E+02 -0.42056084061E+01 -0.12873489840E+03  0.12944702399E+03  0.00000000000E+00 0.  1.
         -3    1    1    2    0  502 -0.36135403694E+02  0.11566685856E+02 -0.59669682540E+03  0.59790187913E+03  0.00000000000E+00 0. -1.
<mgrwt>
<rscale>  1 0.30000000E+03</rscale>
<asrwt>0</asrwt>
<pdfrwt beam="1">  1       21 0.54610694E-02 0.30000000E+03</pdfrwt>
<pdfrwt beam="2">0</pdfrwt>
<totfact> 0.24773992E+04</totfact>
</mgrwt>
</event>
<event>
 6    1  0.1273846E-001  0.3000000E+03  0.7818608E-02  0.1093470E+00
         21   -1    0    0  501  502  0.00000000000E+00  0.00000000000E+00  0.14347075798E+01  0.14347075798E+01  0.00000000000E+00 0. -1.
         13   -1    0    0    0    0 -0.00000000000E+00 -0.00000000000E+00 -0.10000000000E+04  0.10000000000E+04  0.00000000000E+00 0.  1.
    9000005    2    1    2  501    0  0.16913232620E+02  0.29205659334E+02 -0.72561016411E+03  0.72640101865E+03  0.30498627857E+01 0.  0.
         13    1    3    3    0    0  0.93132826808E+01  0.16669435523E+02 -0.44188582850E+03  0.44229819437E+03  0.00000000000E+00 0.  1.
          1    1    3    3  501    0  0.75999499392E+01  0.12536223811E+02 -0.28372433561E+03  0.28410282428E+03  0.00000000000E+00 0.  1.
         -1    1    1    2    0  502 -0.16913232620E+02 -0.29205659334E+02 -0.27295512831E+03  0.27503368893E+03  0.00000000000E+00 0. -1.
<mgrwt>
<rscale>  1 0.30000000E+03</rscale>
<asrwt>0</asrwt>
<pdfrwt beam="1">  1       21 0.52171295E-02 0.30000000E+03</pdfrwt>
<pdfrwt beam="2">0</pdfrwt>
<totfact> 0.26788939E+04</totfact>
</mgrwt>
</event>
<event>
 6    1  0.1273846E-001  0.3000000E+03  0.7818608E-02  0.1093470E+00
         21   -1    0    0  501  502  0.00000000000E+00  0.00000000000E+00  0.21458271365E+01  0.21458271365E+01  0.00000000000E+00 0. -1.
         13   -1    0    0    0    0 -0.00000000000E+00 -0.00000000000E+00 -0.10000000000E+04  0.10000000000E+04  0.00000000000E+00 0.  1.
    9000005    2    1    2  501    0 -0.23018895575E+02  0.37498250289E+02 -0.65440370663E+03  0.65588839244E+03  0.30632915591E+01 0.  0.
         13    1    3    3    0    0 -0.68537316079E+01  0.13677342749E+02 -0.21779479557E+03  0.21833143685E+03  0.00000000000E+00 0.  1.
          1    1    3    3  501    0 -0.16165163967E+02  0.23820907540E+02 -0.43660891106E+03  0.43755695559E+03  0.00000000000E+00 0.  1.
         -3    1    1    2    0  502  0.23018895575E+02 -0.37498250289E+02 -0.34345046623E+03  0.34625743470E+03  0.00000000000E+00 0. -1.
<mgrwt>
<rscale>  1 0.30000000E+03</rscale>
<asrwt>0</asrwt>
<pdfrwt beam="1">  1       21 0.78030242E-02 0.30000000E+03</pdfrwt>
<pdfrwt beam="2">0</pdfrwt>
<totfact> 0.13345249E+04</totfact>
</mgrwt>
</event>
<event>
 6    1  0.1273846E-001  0.3000000E+03  0.7818608E-02  0.1093470E+00
         21   -1    0    0  501  502  0.00000000000E+00  0.00000000000E+00  0.13562821237E+01  0.13562821237E+01  0.00000000000E+00 0. -1.
         13   -1    0    0    0    0 -0.00000000000E+00 -0.00000000000E+00 -0.10000000000E+04  0.10000000000E+04  0.00000000000E+00 0.  1.
    9000005    2    1    2  501    0  0.35792310610E+02 -0.17125663225E+01 -0.61127648954E+03  0.61233521332E+03  0.33829614661E+01 0.  0.
         13    1    3    3    0    0  0.12363817870E+02 -0.20219228790E+01 -0.22582544532E+03  0.22617268606E+03  0.00000000000E+00 0.  1.
          3    1    3    3  501    0  0.23428492740E+02  0.30935655648E+00 -0.38545104422E+03  0.38616252726E+03  0.00000000000E+00 0.  1.
         -3    1    1    2    0  502 -0.35792310610E+02  0.17125663225E+01 -0.38736722834E+03  0.38902106880E+03  0.00000000000E+00 0. -1.
<mgrwt>
<rscale>  1 0.30000000E+03</rscale>
<asrwt>0</asrwt>
<pdfrwt beam="1">  1       21 0.49319454E-02 0.30000000E+03</pdfrwt>
<pdfrwt beam="2">0</pdfrwt>
<totfact> 0.29485290E+04</totfact>
</mgrwt>
</event>
<event>
 6    1  0.1273846E-001  0.3000000E+03  0.7818608E-02  0.1093470E+00
         21   -1    0    0  501  502  0.00000000000E+00  0.00000000000E+00  0.11857842345E+01  0.11857842345E+01  0.00000000000E+00 0. -1.
         13   -1    0    0    0    0 -0.00000000000E+00 -0.00000000000E+00 -0.10000000000E+04  0.10000000000E+04  0.00000000000E+00 0.  1.
    9000005    2    1    2  501    0 -0.26599064775E+02 -0.16276006068E+02 -0.71007018327E+03  0.71076275670E+03  0.34077151422E+01 0.  0.
         13    1    3    3    0    0 -0.76120735616E+01 -0.35282098905E+01 -0.16537440616E+03  0.16558709534E+03  0.00000000000E+00 0.  1.
          1    1    3    3  501    0 -0.18986991213E+02 -0.12747796177E+02 -0.54469577711E+03  0.54517566136E+03  0.00000000000E+00 0.  1.
         -1    1    1    2    0  502  0.26599064775E+02  0.16276006068E+02 -0.28874403250E+03  0.29042302754E+03  0.00000000000E+00 0. -1.
<mgrwt>
<rscale>  1 0.30000000E+03</rscale>
<asrwt>0</asrwt>
<pdfrwt beam="1">  1       21 0.43119518E-02 0.30000000E+03</pdfrwt>
<pdfrwt beam="2">0</pdfrwt>
<totfact> 0.37042435E+04</totfact>
</mgrwt>
</event>
<event>
 6    1  0.1273846E-001  0.3000000E+03  0.7818608E-02  0.1093470E+00
         21   -1    0    0  501  502  0.00000000000E+00  0.00000000000E+00  0.10073898116E+01  0.10073898116E+01  0.00000000000E+00 0. -1.
         13   -1    0    0    0    0 -0.00000000000E+00 -0.00000000000E+00 -0.10000000000E+04  0.10000000000E+04  0.00000000000E+00 0.  1.
    9000005    2    1    2  501    0 -0.21364065622E+01 -0.31378116815E+02 -0.44875931008E+03  0.44987597626E+03  0.37848633441E+01 0.  0.
         13    1    3    3    0    0 -0.16353359344E+01 -0.43933388690E+01 -0.67241362526E+02  0.67404573913E+02  0.00000000000E+00 0.  1.
          1    1    3    3  501    0 -0.50107062783E+00 -0.26984777946E+02 -0.38151794755E+03  0.38247140235E+03  0.00000000000E+00 0.  1.
         -1    1    1    2    0  502  0.21364065622E+01  0.31378116815E+02 -0.55023330011E+03  0.55113141355E+03  0.00000000000E+00 0. -1.
<mgrwt>
<rscale>  1 0.30000000E+03</rscale>
<asrwt>0</asrwt>
<pdfrwt beam="1">  1       21 0.36632434E-02 0.30000000E+03</pdfrwt>
<pdfrwt beam="2">0</pdfrwt>
<totfact> 0.48745346E+04</totfact>
</mgrwt>
</event>
<event>
 6    1  0.1273846E-001  0.3000000E+03  0.7818608E-02  0.1093470E+00
         21   -1    0    0  501  502  0.00000000000E+00  0.00000000000E+00  0.17767872491E+01  0.17767872491E+01  0.00000000000E+00 0. -1.
         13   -1    0    0    0    0 -0.00000000000E+00 -0.00000000000E+00 -0.10000000000E+04  0.10000000000E+04  0.00000000000E+00 0.  1.
    9000005    2    1    2  501    0  0.30775953950E+02  0.26067128085E+02 -0.64241313290E+03  0.64368815656E+03  0.36269904688E+01 0.  0.
         13    1    3    3    0    0  0.28601611649E+02  0.23003619245E+02 -0.57474042222E+03  0.57591125325E+03  0.00000000000E+00 0.  1.
          3    1    3    3  501    0  0.21743423011E+01  0.30635088405E+01 -0.67672710681E+02  0.67776903306E+02  0.00000000000E+00 0.  1.
         -1    1    1    2    0  502 -0.30775953950E+02 -0.26067128085E+02 -0.35581007985E+03  0.35808863069E+03  0.00000000000E+00 0. -1.
<mgrwt>
<rscale>  1 0.30000000E+03</rscale>
<asrwt>0</asrwt>
<pdfrwt beam="1">  1       21 0.64610582E-02 0.30000000E+03</pdfrwt>
<pdfrwt beam="2">0</pdfrwt>
<totfact> 0.18541923E+04</totfact>
</mgrwt>
</event>
<event>
 6    1  0.1273846E-001  0.3000000E+03  0.7818608E-02  0.1093470E+00
         21   -1    0    0  501  502  0.00000000000E+00  0.00000000000E+00  0.28164613397E+01  0.28164613397E+01  0.00000000000E+00 0. -1.
         13   -1    0    0    0    0 -0.00000000000E+00 -0.00000000000E+00 -0.10000000000E+04  0.10000000000E+04  0.00000000000E+00 0.  1.
    9000005    2    1    2  501    0 -0.29840950432E+02  0.29470881095E+02 -0.19293721099E+03  0.19747729631E+03  0.36742372289E+01 0.  0.
         13    1    3    3    0    0 -0.21950027272E+02  0.22659049869E+02 -0.15141393729E+03  0.15466549920E+03  0.00000000000E+00 0.  1.
          1    1    3    3  501    0 -0.78909231598E+01  0.68118312258E+01 -0.41523273706E+02  0.42811797115E+02  0.00000000000E+00 0.  1.
         -1    1    1    2    0  502  0.29840950432E+02 -0.29470881095E+02 -0.80424632767E+03  0.80533916503E+03  0.00000000000E+00 0. -1.
<mgrwt>
<rscale>  1 0.30000000E+03</rscale>
<asrwt>0</asrwt>
<pdfrwt beam="1">  1       21 0.10241699E-01 0.30000000E+03</pdfrwt>
<pdfrwt beam="2">0</pdfrwt>
<totfact> 0.82435298E+03</totfact>
</mgrwt>
</event>
<event>
 6    1  0.1273846E-001  0.3000000E+03  0.7818608E-02  0.1093470E+00
         21   -1    0    0  501  502  0.00000000000E+00  0.00000000000E+00  0.91459349639E+00  0.91459349639E+00  0.00000000000E+00 0. -1.
         13   -1    0    0    0    0 -0.00000000000E+00 -0.00000000000E+00 -0.10000000000E+04  0.10000000000E+04  0.00000000000E+00 0.  1.
    9000005    2    1    2  501    0 -0.29461148318E+02 -0.60931566260E+01 -0.53446353744E+03  0.53531974062E+03  0.32963648022E+01 0.  0.
         13    1    3    3    0    0 -0.21423416620E+01  0.40057749053E+00 -0.41150237909E+02  0.41207913926E+02  0.00000000000E+00 0.  1.
          1    1    3    3  501    0 -0.27318806656E+02 -0.64937341165E+01 -0.49331329953E+03  0.49411182669E+03  0.00000000000E+00 0.  1.
         -3    1    1    2    0  502  0.29461148318E+02  0.60931566260E+01 -0.46462186906E+03  0.46559485288E+03  0.00000000000E+00 0. -1.
<mgrwt>
<rscale>  1 0.30000000E+03</rscale>
<asrwt>0</asrwt>
<pdfrwt beam="1">  1       21 0.33258015E-02 0.30000000E+03</pdfrwt>
<pdfrwt beam="2">0</pdfrwt>
<totfact> 0.57304054E+04</totfact>
</mgrwt>
</event>
<event>
 6    1  0.1273846E-001  0.3000000E+03  0.7818608E-02  0.1093470E+00
         21   -1    0    0  501  502  0.00000000000E+00  0.00000000000E+00  0.14346356878E+01  0.14346356878E+01  0.00000000000E+00 0. -1.
         13   -1    0    0    0    0 -0.00000000000E+00 -0.00000000000E+00 -0.10000000000E+04  0.10000000000E+04  0.00000000000E+00 0.  1.
    9000005    2    1    2  501    0  0.32434218041E+02  0.90864872479E+01 -0.72759572805E+03  0.72837953772E+03  0.25816160440E+01 0.  0.
         13    1    3    3    0    0  0.99019160084E+01  0.40194452930E+01 -0.23111056820E+03  0.23135751256E+03  0.00000000000E+00 0.  1.
          1    1    3    3  501    0  0.22532302032E+02  0.50670419549E+01 -0.49648515985E+03  0.49702202516E+03  0.00000000000E+00 0.  1.
         -1    1    1    2    0  502 -0.32434218041E+02 -0.90864872479E+01 -0.27096963626E+03  0.27305509797E+03  0.00000000000E+00 0. -1.
<mgrwt>
<rscale>  1 0.30000000E+03</rscale>
<asrwt>0</asrwt>
<pdfrwt beam="1">  1       21 0.52168680E-02 0.30000000E+03</pdfrwt>
<pdfrwt beam="2">0</pdfrwt>
<totfact> 0.26791233E+04</totfact>
</mgrwt>
</event>
<event>
 6    1  0.1273846E-001  0.3000000E+03  0.7818608E-02  0.1093470E+00
         21   -1    0    0  501  502  0.00000000000E+00  0.00000000000E+00  0.12929155700E+01  0.12929155700E+01  0.00000000000E+00 0. -1.
         13   -1    0    0    0    0 -0.00000000000E+00 -0.00000000000E+00 -0.10000000000E+04  0.10000000000E+04  0.00000000000E+00 0.  1.
    9000005    2    1    2  501    0  0.23164741474E+02 -0.27407233165E+02 -0.49597965809E+03  0.49728634134E+03  0.31815660144E+01 0.  0.
         13    1    3    3    0    0  0.19415881263E+02 -0.21303662466E+02 -0.38766321235E+03  0.38873331306E+03  0.00000000000E+00 0.  1.
          3    1    3    3  501    0  0.37488602114E+01 -0.61035706984E+01 -0.10831644575E+03  0.10855302827E+03  0.00000000000E+00 0.  1.
         -3    1    1    2    0  502 -0.23164741474E+02  0.27407233165E+02 -0.50272742634E+03  0.50400657423E+03  0.00000000000E+00 0. -1.
<mgrwt>
<rscale>  1 0.30000000E+03</rscale>
<asrwt>0</asrwt>
<pdfrwt beam="1">  1       21 0.47015211E-02 0.30000000E+03</pdfrwt>
<pdfrwt beam="2">0</pdfrwt>
<totfact> 0.31986730E+04</totfact>
</mgrwt>
</event>
<event>
 6    1  0.1273846E-001  0.3000000E+03  0.7818608E-02  0.1093470E+00
         21   -1    0    0  501  502  0.00000000000E+00  0.00000000000E+00  0.18737986259E+01  0.18737986259E+01  0.00000000000E+00 0. -1.
         13   -1    0    0    0    0 -0.00000000000E+00 -0.00000000000E+00 -0.10000000000E+04  0.10000000000E+04  0.00000000000E+00 0.  1.
    9000005    2    1    2  501    0 -0.34066194848E+02 -0.25175047798E+02 -0.39959084965E+03  0.40184141956E+03  0.30644228852E+01 0.  0.
         13    1    3    3    0    0 -0.17300880672E+02 -0.13833917242E+02 -0.22085496010E+03  0.22196308508E+03  0.00000000000E+00 0.  1.
          1    1    3    3  501    0 -0.16765314176E+02 -0.11341130556E+02 -0.17873588955E+03  0.17987833448E+03  0.00000000000E+00 0.  1.
         -1    1    1    2    0  502  0.34066194848E+02  0.25175047798E+02 -0.59853535173E+03  0.60003237907E+03  0.00000000000E+00 0. -1.
<mgrwt>
<rscale>  1 0.30000000E+03</rscale>
<asrwt>0</asrwt>
<pdfrwt beam="1">  1       21 0.68138276E-02 0.30000000E+03</pdfrwt>
<pdfrwt beam="2">0</pdfrwt>
<totfact> 0.16909438E+04</totfact>
</mgrwt>
</event>
<event>
 6    1  0.1273846E-001  0.3000000E+03  0.7818608E-02  0.1093470E+00
         21   -1    0    0  501  502  0.00000000000E+00  0.00000000000E+00  0.15138238575E+01  0.15138238575E+01  0.00000000000E+00 0. -1.
         13   -1    0    0    0    0 -0.00000000000E+00 -0.00000000000E+00 -0.10000000000E+04  0.10000000000E+04  0.00000000000E+00 0.  1.
    9000005    2    1    2  501    0 -0.10274899644E+02 -0.37151596045E+02 -0.55683934918E+03  0.55818805829E+03  0.42465243553E+01 0.  0.
         13    1    3    3    0    0 -0.15703474881E+01 -0.19270853915E+01 -0.38850185515E+02  0.38929636062E+02  0.00000000000E+00 0.  1.
          1    1    3    3  501    0 -0.87045521563E+01 -0.35224510654E+02 -0.51798916366E+03  0.51925842223E+03  0.00000000000E+00 0.  1.
         -1    1    1    2    0  502  0.10274899644E+02  0.37151596045E+02 -0.44164682696E+03  0.44332576557E+03  0.00000000000E+00 0. -1.
<mgrwt>
<rscale>  1 0.30000000E+03</rscale>
<asrwt>0</asrwt>
<pdfrwt beam="1">  1       21 0.55048256E-02 0.30000000E+03</pdfrwt>
<pdfrwt beam="2">0</pdfrwt>
<totfact> 0.24437372E+04</totfact>
</mgrwt>
</event>
<event>
 6    1  0.1273846E-001  0.3000000E+03  0.7818608E-02  0.1093470E+00
         21   -1    0    0  501  502  0.00000000000E+00  0.00000000000E+00  0.36929159018E+01  0.36929159018E+01  0.00000000000E+00 0. -1.
         13   -1    0    0    0    0 -0.00000000000E+00 -0.00000000000E+00 -0.10000000000E+04  0.10000000000E+04  0.00000000000E+00 0.  1.
    9000005    2    1    2  501    0  0.21134851488E+02  0.23297726047E+02 -0.92747271036E+03  0.92801176241E+03  0.32766927802E+01 0.  0.
         13    1    3    3    0    0  0.44316058865E+01  0.65004203757E+01 -0.25899871651E+03  0.25911817719E+03  0.00000000000E+00 0.  1.
          1    1    3    3  501    0  0.16703245602E+02  0.16797305672E+02 -0.66847399385E+03  0.66889358522E+03  0.00000000000E+00 0.  1.
         -3    1    1    2    0  502 -0.21134851488E+02 -0.23297726047E+02 -0.68834373733E+02  0.75681153491E+02  0.00000000000E+00 0. -1.
<mgrwt>
<rscale>  1 0.30000000E+03</rscale>
<asrwt>0</asrwt>
<pdfrwt beam="1">  1       21 0.13428813E-01 0.30000000E+03</pdfrwt>
<pdfrwt beam="2">0</pdfrwt>
<totfact> 0.50479339E+03</totfact>
</mgrwt>
</event>
<event>
 6    1  0.1273846E-001  0.3000000E+03  0.7818608E-02  0.1093470E+00
         21   -1    0    0  501  502  0.00000000000E+00  0.00000000000E+00  0.18307401107E+01  0.18307401107E+01  0.00000000000E+00 0. -1.
         13   -1    0    0    0    0 -0.00000000000E+00 -0.00000000000E+00 -0.10000000000E+04  0.10000000000E+04  0.00000000000E+00 0.  1.
    9000005    2    1    2  501    0 -0.63280936788E+01 -0.41932309130E+02 -0.56087612149E+03  0.56248616895E+03  0.32098726208E+01 0.  0.
         13    1    3    3    0    0 -0.17955186522E+01 -0.60230425608E+01 -0.73821500199E+02  0.74088560659E+02  0.00000000000E+00 0.  1.
          3    1    3    3  501    0 -0.45325750266E+01 -0.35909266569E+02 -0.48705462129E+03  0.48839760829E+03  0.00000000000E+00 0.  1.
         -1    1    1    2    0  502  0.63280936788E+01  0.41932309130E+02 -0.43729313840E+03  0.43934457116E+03  0.00000000000E+00 0. -1.
<mgrwt>
<rscale>  1 0.30000000E+03</rscale>
<asrwt>0</asrwt>
<pdfrwt beam="1">  1       21 0.66572508E-02 0.30000000E+03</pdfrwt>
<pdfrwt beam="2">0</pdfrwt>
<totfact> 0.17605544E+04</totfact>
</mgrwt>
</event>
<event>
 6    1  0.1273846E-001  0.3000000E+03  0.7818608E-02  0.1093470E+00
         21   -1    0    0  501  502  0.00000000000E+00  0.00000000000E+00  0.18851149443E+01  0.18851149443E+01  0.00000000000E+00 0. -1.
         13   -1    0    0    0    0 -0.00000000000E+00 -0.00000000000E+00 -0.10000000000E+04  0.10000000000E+04  0.00000000000E+00 0.  1.
    9000005    2    1    2  501    0  0.31249827141E+02  0.80201023211E+01 -0.83338541254E+03  0.83402602864E+03  0.52246423146E+01 0.  0.
         13    1    3    3    0    0  0.25882101253E+02  0.46305395105E+01 -0.65402098323E+03  0.65454928887E+03  0.00000000000E+00 0.  1.
          3    1    3    3  501    0  0.53677258880E+01  0.33895628106E+01 -0.17936442931E+03  0.17947673977E+03  0.00000000000E+00 0.  1.
         -3    1    1    2    0  502 -0.31249827141E+02 -0.80201023211E+01 -0.16472947252E+03  0.16785908630E+03  0.00000000000E+00 0. -1.
<mgrwt>
<rscale>  1 0.30000000E+03</rscale>
<asrwt>0</asrwt>
<pdfrwt beam="1">  1       21 0.68549779E-02 0.30000000E+03</pdfrwt>
<pdfrwt beam="2">0</pdfrwt>
<totfact> 0.16733498E+04</totfact>
</mgrwt>
</event>
<event>
 6    1  0.1273846E-001  0.3000000E+03  0.7818608E-02  0.1093470E+00
         21   -1    0    0  501  502  0.00000000000E+00  0.00000000000E+00  0.10156330359E+01  0.10156330359E+01  0.00000000000E+00 0. -1.
         13   -1    0    0    0    0 -0.00000000000E+00 -0.00000000000E+00 -0.10000000000E+04  0.10000000000E+04  0.00000000000E+00 0.  1.
    9000005    2    1    2  501    0  0.31526560921E+02  0.26604314274E+01 -0.55165730926E+03  0.55257110080E+03  0.28341911608E+01 0.  0.
         13    1    3    3    0    0  0.28151606754E+02  0.18902738190E+01 -0.50309302219E+03  0.50388359278E+03  0.00000000000E+00 0.  1.
          3    1    3    3  501    0  0.33749541666E+01  0.77015760839E+00 -0.48564287069E+02  0.48687508017E+02  0.00000000000E+00 0.  1.
         -3    1    1    2    0  502 -0.31526560921E+02 -0.26604314274E+01 -0.44732705771E+03  0.44844453224E+03  0.00000000000E+00 0. -1.
<mgrwt>
<rscale>  1 0.30000000E+03</rscale>
<asrwt>0</asrwt>
<pdfrwt beam="1">  1       21 0.36932188E-02 0.30000000E+03</pdfrwt>
<pdfrwt beam="2">0</pdfrwt>
<totfact> 0.48083255E+04</totfact>
</mgrwt>
</event>
<event>
 6    1  0.1273846E-001  0.3000000E+03  0.7818608E-02  0.1093470E+00
         21   -1    0    0  501  502  0.00000000000E+00  0.00000000000E+00  0.10218858544E+01  0.10218858544E+01  0.00000000000E+00 0. -1.
         13   -1    0    0    0    0 -0.00000000000E+00 -0.00000000000E+00 -0.10000000000E+04  0.10000000000E+04  0.00000000000E+00 0.  1.
    9000005    2    1    2  501    0 -0.16831860226E+02 -0.26547392350E+02 -0.42096470888E+03  0.42215439478E+03  0.38692826378E+01 0.  0.
         13    1    3    3    0    0 -0.13292317876E+02 -0.23505013925E+02 -0.35963905940E+03  0.36065138907E+03  0.00000000000E+00 0.  1.
          1    1    3    3  501    0 -0.35395423502E+01 -0.30423784251E+01 -0.61325649482E+02  0.61503005706E+02  0.00000000000E+00 0.  1.
         -1    1    1    2    0  502  0.16831860226E+02  0.26547392350E+02 -0.57801340526E+03  0.57886749107E+03  0.00000000000E+00 0. -1.
<mgrwt>
<rscale>  1 0.30000000E+03</rscale>
<asrwt>0</asrwt>
<pdfrwt beam="1">  1       21 0.37159564E-02 0.30000000E+03</pdfrwt>
<pdfrwt beam="2">0</pdfrwt>
<totfact> 0.47590429E+04</totfact>
</mgrwt>
</event>
<event>
 6    1  0.1273846E-001  0.3000000E+03  0.7818608E-02  0.1093470E+00
         21   -1    0    0  501  502  0.00000000000E+00  0.00000000000E+00  0.24235296134E+01  0.24235296134E+01  0.00000000000E+00 0. -1.
         13   -1    0    0    0    0 -0.00000000000E+00 -0.00000000000E+00 -0.10000000000E+04  0.10000000000E+04  0.00000000000E+00 0.  1.
    9000005    2    1    2  501    0  0.28632027967E+02 -0.14322222300E+02 -0.87923903494E+03  0.87983206292E+03  0.42730912317E+01 0.  0.
         13    1    3    3    0    0  0.23051182690E+02 -0.10038206982E+02 -0.65368682589E+03  0.65417015292E+03  0.00000000000E+00 0.  1.
          1    1    3    3  501    0  0.55808452770E+01 -0.42840153182E+01 -0.22555220904E+03  0.22566191000E+03  0.00000000000E+00 0.  1.
         -1    1    1    2    0  502 -0.28632027967E+02  0.14322222300E+02 -0.11833743545E+03  0.12259146669E+03  0.00000000000E+00 0. -1.
<mgrwt>
<rscale>  1 0.30000000E+03</rscale>
<asrwt>0</asrwt>
<pdfrwt beam="1">  1       21 0.88128535E-02 0.30000000E+03</pdfrwt>
<pdfrwt beam="2">0</pdfrwt>
<totfact> 0.10771356E+04</totfact>
</mgrwt>
</event>
<event>
 6    1  0.1273846E-001  0.3000000E+03  0.7818608E-02  0.1093470E+00
         21   -1    0    0  501  502  0.00000000000E+00  0.00000000000E+00  0.11524171333E+01  0.11524171333E+01  0.00000000000E+00 0. -1.
         13   -1    0    0    0    0 -0.00000000000E+00 -0.00000000000E+00 -0.10000000000E+04  0.10000000000E+04  0.00000000000E+00 0.  1.
    9000005    2    1    2  501    0 -0.14412065419E+02  0.28845056875E+02 -0.64383945932E+03  0.64468290551E+03  0.68596164804E+01 0.  0.
         13    1    3    3    0    0 -0.14950039199E+02  0.27695477099E+02 -0.62990057408E+03  0.63068635339E+03  0.00000000000E+00 0.  1.
          3    1    3    3  501    0  0.53797377985E+00  0.11495797760E+01 -0.13938885244E+02  0.13996552121E+02  0.00000000000E+00 0.  1.
         -1    1    1    2    0  502  0.14412065419E+02 -0.28845056875E+02 -0.35500812354E+03  0.35646951162E+03  0.00000000000E+00 0. -1.
<mgrwt>
<rscale>  1 0.30000000E+03</rscale>
<asrwt>0</asrwt>
<pdfrwt beam="1">  1       21 0.41906166E-02 0.30000000E+03</pdfrwt>
<pdfrwt beam="2">0</pdfrwt>
<totfact> 0.38872990E+04</totfact>
</mgrwt>
</event>
<event>
 6    1  0.1273846E-001  0.3000000E+03  0.7818608E-02  0.1093470E+00
         21   -1    0    0  501  502  0.00000000000E+00  0.00000000000E+00  0.37126288259E+01  0.37126288259E+01  0.00000000000E+00 0. -1.
         13   -1    0    0    0    0 -0.00000000000E+00 -0.00000000000E+00 -0.10000000000E+04  0.10000000000E+04  0.00000000000E+00 0.  1.
    9000005    2    1    2  501    0  0.42659397220E+02 -0.13317315548E+02 -0.83887451823E+03  0.84007894850E+03  0.50007314466E+01 0.  0.
         13    1    3    3    0    0  0.21226510225E+02 -0.62466072970E+01 -0.46154916945E+03  0.46207923634E+03  0.00000000000E+00 0.  1.
          1    1    3    3  501    0  0.21432886995E+02 -0.70707082512E+01 -0.37732534878E+03  0.37799971215E+03  0.00000000000E+00 0.  1.
         -1    1    1    2    0  502 -0.42659397220E+02  0.13317315548E+02 -0.15741285295E+03  0.16363368033E+03  0.00000000000E+00 0. -1.
<mgrwt>
<rscale>  1 0.30000000E+03</rscale>
<asrwt>0</asrwt>
<pdfrwt beam="1">  1       21 0.13500497E-01 0.30000000E+03</pdfrwt>
<pdfrwt beam="2">0</pdfrwt>
<totfact> 0.49989643E+03</totfact>
</mgrwt>
</event>
<event>
 6    1  0.1273846E-001  0.3000000E+03  0.7818608E-02  0.1093470E+00
         21   -1    0    0  501  502  0.00000000000E+00  0.00000000000E+00  0.33649297215E+01  0.33649297215E+01  0.00000000000E+00 0. -1.
         13   -1    0    0    0    0 -0.00000000000E+00 -0.00000000000E+00 -0.10000000000E+04  0.10000000000E+04  0.00000000000E+00 0.  1.
    9000005    2    1    2  501    0  0.41745817260E+02  0.38925305082E+02 -0.41082132469E+03  0.41477709673E+03  0.28260415399E+01 0.  0.
         13    1    3    3    0    0  0.22388098821E+02  0.20439034465E+02 -0.20817797070E+03  0.21037359289E+03  0.00000000000E+00 0.  1.
          3    1    3    3  501    0  0.19357718439E+02  0.18486270617E+02 -0.20264335399E+03  0.20440350384E+03  0.00000000000E+00 0.  1.
         -1    1    1    2    0  502 -0.41745817260E+02 -0.38925305082E+02 -0.58581374559E+03  0.58858783300E+03  0.00000000000E+00 0. -1.
<mgrwt>
<rscale>  1 0.30000000E+03</rscale>
<asrwt>0</asrwt>
<pdfrwt beam="1">  1       21 0.12236134E-01 0.30000000E+03</pdfrwt>
<pdfrwt beam="2">0</pdfrwt>
<totfact> 0.59815323E+03</totfact>
</mgrwt>
</event>
<event>
 6    1  0.1273846E-001  0.3000000E+03  0.7818608E-02  0.1093470E+00
         21   -1    0    0  501  502  0.00000000000E+00  0.00000000000E+00  0.20066773060E+01  0.20066773060E+01  0.00000000000E+00 0. -1.
         13   -1    0    0    0    0 -0.00000000000E+00 -0.00000000000E+00 -0.10000000000E+04  0.10000000000E+04  0.00000000000E+00 0.  1.
    9000005    2    1    2  501    0  0.26422920767E+02 -0.25724685520E+02 -0.78285221663E+03  0.78372789752E+03  0.34487794281E+01 0.  0.
         13    1    3    3    0    0  0.23054760546E+02 -0.23184219721E+02 -0.71180466331E+03  0.71255519698E+03  0.00000000000E+00 0.  1.
          3    1    3    3  501    0  0.33681602208E+01 -0.25404657997E+01 -0.71047553321E+02  0.71172700544E+02  0.00000000000E+00 0.  1.
         -3    1    1    2    0  502 -0.26422920767E+02  0.25724685520E+02 -0.21514110606E+03  0.21827877979E+03  0.00000000000E+00 0. -1.
<mgrwt>
<rscale>  1 0.30000000E+03</rscale>
<asrwt>0</asrwt>
<pdfrwt beam="1">  1       21 0.72970238E-02 0.30000000E+03</pdfrwt>
<pdfrwt beam="2">0</pdfrwt>
<totfact> 0.15007618E+04</totfact>
</mgrwt>
</event>
<event>
 6    1  0.1273846E-001  0.3000000E+03  0.7818608E-02  0.1093470E+00
         21   -1    0    0  501  502  0.00000000000E+00  0.00000000000E+00  0.41702019528E+01  0.41702019528E+01  0.00000000000E+00 0. -1.
         13   -1    0    0    0    0 -0.00000000000E+00 -0.00000000000E+00 -0.10000000000E+04  0.10000000000E+04  0.00000000000E+00 0.  1.
    9000005    2    1    2  501    0 -0.33459551878E+02 -0.52703502919E+02 -0.38756641993E+03  0.39271166861E+03  0.10840847661E+02 0.  0.
         13    1    3    3    0    0 -0.19065111558E+02 -0.26296729034E+02 -0.16985048008E+03  0.17292825686E+03  0.00000000000E+00 0.  1.
          1    1    3    3  501    0 -0.14394440320E+02 -0.26406773885E+02 -0.21771593985E+03  0.21978341176E+03  0.00000000000E+00 0.  1.
         -3    1    1    2    0  502  0.33459551878E+02  0.52703502919E+02 -0.60826337812E+03  0.61145853334E+03  0.00000000000E+00 0. -1.
<mgrwt>
<rscale>  1 0.30000000E+03</rscale>
<asrwt>0</asrwt>
<pdfrwt beam="1">  1       21 0.15164403E-01 0.30000000E+03</pdfrwt>
<pdfrwt beam="2">0</pdfrwt>
<totfact> 0.40357304E+03</totfact>
</mgrwt>
</event>
<event>
 6    1  0.1273846E-001  0.3000000E+03  0.7818608E-02  0.1093470E+00
         21   -1    0    0  501  502  0.00000000000E+00  0.00000000000E+00  0.20094451506E+01  0.20094451506E+01  0.00000000000E+00 0. -1.
         13   -1    0    0    0    0 -0.00000000000E+00 -0.00000000000E+00 -0.10000000000E+04  0.10000000000E+04  0.00000000000E+00 0.  1.
    9000005    2    1    2  501    0 -0.15231751430E+02  0.36456918345E+02 -0.73485763340E+03  0.73592666198E+03  0.33462377251E+01 0.  0.
         13    1    3    3    0    0 -0.11780158903E+02  0.29322167733E+02 -0.56253540869E+03  0.56342226411E+03  0.00000000000E+00 0.  1.
          3    1    3    3  501    0 -0.34515925268E+01  0.71347506120E+01 -0.17232222470E+03  0.17250439787E+03  0.00000000000E+00 0.  1.
         -1    1    1    2    0  502  0.15231751430E+02 -0.36456918345E+02 -0.26313292145E+03  0.26608278317E+03  0.00000000000E+00 0. -1.
<mgrwt>
<rscale>  1 0.30000000E+03</rscale>
<asrwt>0</asrwt>
<pdfrwt beam="1">  1       21 0.73070887E-02 0.30000000E+03</pdfrwt>
<pdfrwt beam="2">0</pdfrwt>
<totfact> 0.14971527E+04</totfact>
</mgrwt>
</event>
<event>
 6    1  0.1273846E-001  0.3000000E+03  0.7818608E-02  0.1093470E+00
         21   -1    0    0  501  502  0.00000000000E+00  0.00000000000E+00  0.33096125390E+01  0.33096125390E+01  0.00000000000E+00 0. -1.
         13   -1    0    0    0    0 -0.00000000000E+00 -0.00000000000E+00 -0.10000000000E+04  0.10000000000E+04  0.00000000000E+00 0.  1.
    9000005    2    1    2  501    0  0.19992448838E+02  0.28814892651E+02 -0.89584807957E+03  0.89654273046E+03  0.38845610761E+01 0.  0.
         13    1    3    3    0    0  0.79815514487E+01  0.14164969355E+02 -0.38333156345E+03  0.38367621643E+03  0.00000000000E+00 0.  1.
          1    1    3    3  501    0  0.12010897389E+02  0.14649923296E+02 -0.51251651612E+03  0.51286651402E+03  0.00000000000E+00 0.  1.
         -1    1    1    2    0  502 -0.19992448838E+02 -0.28814892651E+02 -0.10084230789E+03  0.10676688208E+03  0.00000000000E+00 0. -1.
<mgrwt>
<rscale>  1 0.30000000E+03</rscale>
<asrwt>0</asrwt>
<pdfrwt beam="1">  1       21 0.12034980E-01 0.30000000E+03</pdfrwt>
<pdfrwt beam="2">0</pdfrwt>
<totfact> 0.61644625E+03</totfact>
</mgrwt>
</event>
<event>
 6    1  0.1273846E-001  0.3000000E+03  0.7818608E-02  0.1093470E+00
         21   -1    0    0  501  502  0.00000000000E+00  0.00000000000E+00  0.48674160004E+01  0.48674160004E+01  0.00000000000E+00 0. -1.
         13   -1    0    0    0    0 -0.00000000000E+00 -0.00000000000E+00 -0.10000000000E+04  0.10000000000E+04  0.00000000000E+00 0.  1.
    9000005    2    1    2  501    0  0.45401638122E+02  0.52924624443E+02 -0.49908686505E+03  0.50394458771E+03  0.31818230366E+01 0.  0.
         13    1    3    3    0    0  0.16355270559E+02  0.21441873942E+02 -0.19335462615E+03  0.19522617726E+03  0.00000000000E+00 0.  1.
          1    1    3    3  501    0  0.29046367563E+02  0.31482750501E+02 -0.30573223890E+03  0.30871841045E+03  0.00000000000E+00 0.  1.
         -1    1    1    2    0  502 -0.45401638122E+02 -0.52924624443E+02 -0.49604571895E+03  0.50092282829E+03  0.00000000000E+00 0. -1.
<mgrwt>
<rscale>  1 0.30000000E+03</rscale>
<asrwt>0</asrwt>
<pdfrwt beam="1">  1       21 0.17699732E-01 0.30000000E+03</pdfrwt>
<pdfrwt beam="2">0</pdfrwt>
<totfact> 0.30237714E+03</totfact>
</mgrwt>
</event>
<event>
 6    1  0.1273846E-001  0.3000000E+03  0.7818608E-02  0.1093470E+00
         21   -1    0    0  501  502  0.00000000000E+00  0.00000000000E+00  0.96328623147E+00  0.96328623147E+00  0.00000000000E+00 0. -1.
         13   -1    0    0    0    0 -0.00000000000E+00 -0.00000000000E+00 -0.10000000000E+04  0.10000000000E+04  0.00000000000E+00 0.  1.
    9000005    2    1    2  501    0 -0.14292318314E+02 -0.27421968851E+02 -0.47423261127E+03  0.47524893343E+03  0.29570930543E+01 0.  0.
         13    1    3    3    0    0 -0.25162204685E+01 -0.67044306696E+01 -0.96477249356E+02  0.96742650364E+02  0.00000000000E+00 0.  1.
          1    1    3    3  501    0 -0.11776097845E+02 -0.20717538181E+02 -0.37775536191E+03  0.37850628307E+03  0.00000000000E+00 0.  1.
         -1    1    1    2    0  502  0.14292318314E+02  0.27421968851E+02 -0.52480410250E+03  0.52571435280E+03  0.00000000000E+00 0. -1.
<mgrwt>
<rscale>  1 0.30000000E+03</rscale>
<asrwt>0</asrwt>
<pdfrwt beam="1">  1       21 0.35028664E-02 0.30000000E+03</pdfrwt>
<pdfrwt beam="2">0</pdfrwt>
<totfact> 0.52544728E+04</totfact>
</mgrwt>
</event>
<event>
 6    1  0.1273846E-001  0.3000000E+03  0.7818608E-02  0.1093470E+00
         21   -1    0    0  501  502  0.00000000000E+00  0.00000000000E+00  0.80210544922E+01  0.80210544922E+01  0.00000000000E+00 0. -1.
         13   -1    0    0    0    0 -0.00000000000E+00 -0.00000000000E+00 -0.10000000000E+04  0.10000000000E+04  0.00000000000E+00 0.  1.
    9000005    2    1    2  501    0  0.60282187545E+02 -0.43667908757E+02 -0.77610774482E+03  0.77967656983E+03  0.33902179184E+01 0.  0.
         13    1    3    3    0    0  0.27960996379E+02 -0.20875233579E+02 -0.34692862337E+03  0.34867902490E+03  0.00000000000E+00 0.  1.
          1    1    3    3  501    0  0.32321191167E+02 -0.22792675178E+02 -0.42917912146E+03  0.43099754493E+03  0.00000000000E+00 0.  1.
         -1    1    1    2    0  502 -0.60282187545E+02  0.43667908757E+02 -0.21587120068E+03  0.22834448466E+03  0.00000000000E+00 0. -1.
<mgrwt>
<rscale>  1 0.30000000E+03</rscale>
<asrwt>0</asrwt>
<pdfrwt beam="1">  1       21 0.29167532E-01 0.30000000E+03</pdfrwt>
<pdfrwt beam="2">0</pdfrwt>
<totfact> 0.11501165E+03</totfact>
</mgrwt>
</event>
<event>
 6    1  0.1273846E-001  0.3000000E+03  0.7818608E-02  0.1093470E+00
         21   -1    0    0  501  502  0.00000000000E+00  0.00000000000E+00  0.10233971537E+01  0.10233971537E+01  0.00000000000E+00 0. -1.
         13   -1    0    0    0    0 -0.00000000000E+00 -0.00000000000E+00 -0.10000000000E+04  0.10000000000E+04  0.00000000000E+00 0.  1.
    9000005    2    1    2  501    0 -0.85408030359E+00  0.31325326262E+02 -0.59410111061E+03  0.59493699042E+03  0.34478146371E+01 0.  0.
         13    1    3    3    0    0 -0.17720771117E+01  0.24525639475E+02 -0.48066470578E+03  0.48129326469E+03  0.00000000000E+00 0.  1.
          3    1    3    3  501    0  0.91799680809E+00  0.67996867879E+01 -0.11343640482E+03  0.11364372573E+03  0.00000000000E+00 0.  1.
         -3    1    1    2    0  502  0.85408030359E+00 -0.31325326262E+02 -0.40487549224E+03  0.40608640673E+03  0.00000000000E+00 0. -1.
<mgrwt>
<rscale>  1 0.30000000E+03</rscale>
<asrwt>0</asrwt>
<pdfrwt beam="1">  1       21 0.37214520E-02 0.30000000E+03</pdfrwt>
<pdfrwt beam="2">0</pdfrwt>
<totfact> 0.47472506E+04</totfact>
</mgrwt>
</event>
<event>
 6    1  0.1273846E-001  0.3000000E+03  0.7818608E-02  0.1093470E+00
         21   -1    0    0  501  502  0.00000000000E+00  0.00000000000E+00  0.60901676303E+01  0.60901676303E+01  0.00000000000E+00 0. -1.
         13   -1    0    0    0    0 -0.00000000000E+00 -0.00000000000E+00 -0.10000000000E+04  0.10000000000E+04  0.00000000000E+00 0.  1.
    9000005    2    1    2  501    0  0.54027768844E+02 -0.24394896147E+02 -0.82398390671E+03  0.82612091755E+03  0.34901471339E+01 0.  0.
         13    1    3    3    0    0  0.27101103264E+02 -0.13047255267E+02 -0.39594472296E+03  0.39708553777E+03  0.00000000000E+00 0.  1.
          1    1    3    3  501    0  0.26926665580E+02 -0.11347640880E+02 -0.42803918375E+03  0.42903537977E+03  0.00000000000E+00 0.  1.
         -1    1    1    2    0  502 -0.54027768844E+02  0.24394896147E+02 -0.16992592566E+03  0.17996925008E+03  0.00000000000E+00 0. -1.
<mgrwt>
<rscale>  1 0.30000000E+03</rscale>
<asrwt>0</asrwt>
<pdfrwt beam="1">  1       21 0.22146111E-01 0.30000000E+03</pdfrwt>
<pdfrwt beam="2">0</pdfrwt>
<totfact> 0.19732742E+03</totfact>
</mgrwt>
</event>
<event>
 6    1  0.1273846E-001  0.3000000E+03  0.7818608E-02  0.1093470E+00
         21   -1    0    0  501  502  0.00000000000E+00  0.00000000000E+00  0.56754920873E+01  0.56754920873E+01  0.00000000000E+00 0. -1.
         13   -1    0    0    0    0 -0.00000000000E+00 -0.00000000000E+00 -0.10000000000E+04  0.10000000000E+04  0.00000000000E+00 0.  1.
    9000005    2    1    2  501    0  0.19381534730E+02 -0.38378329811E+02 -0.84429253361E+02  0.94765005627E+02  0.18887511247E+01 0.  0.
         13    1    3    3    0    0  0.25008068849E+01 -0.37201566277E+01 -0.84607934101E+01  0.95748955889E+01  0.00000000000E+00 0.  1.
          3    1    3    3  501    0  0.16880727845E+02 -0.34658173183E+02 -0.75968459951E+02  0.85190110038E+02  0.00000000000E+00 0.  1.
         -3    1    1    2    0  502 -0.19381534730E+02  0.38378329811E+02 -0.90989525455E+03  0.91091048646E+03  0.00000000000E+00 0. -1.
<mgrwt>
<rscale>  1 0.30000000E+03</rscale>
<asrwt>0</asrwt>
<pdfrwt beam="1">  1       21 0.20638197E-01 0.30000000E+03</pdfrwt>
<pdfrwt beam="2">0</pdfrwt>
<totfact> 0.22593963E+03</totfact>
</mgrwt>
</event>
<event>
 6    1  0.1273846E-001  0.3000000E+03  0.7818608E-02  0.1093470E+00
         21   -1    0    0  501  502  0.00000000000E+00  0.00000000000E+00  0.91197239162E+01  0.91197239162E+01  0.00000000000E+00 0. -1.
         13   -1    0    0    0    0 -0.00000000000E+00 -0.00000000000E+00 -0.10000000000E+04  0.10000000000E+04  0.00000000000E+00 0.  1.
    9000005    2    1    2  501    0  0.94549608203E+02 -0.51337528223E+01 -0.43178668025E+03  0.44206449492E+03  0.39110866007E+01 0.  0.
         13    1    3    3    0    0  0.62257111320E+02 -0.48967274137E+01 -0.27958286627E+03  0.28647252043E+03  0.00000000000E+00 0.  1.
          3    1    3    3  501    0  0.32292496883E+02 -0.23702540863E+00 -0.15220381398E+03  0.15559197449E+03  0.00000000000E+00 0.  1.
         -1    1    1    2    0  502 -0.94549608203E+02  0.51337528223E+01 -0.55909359583E+03  0.56705522900E+03  0.00000000000E+00 0. -1.
<mgrwt>
<rscale>  1 0.30000000E+03</rscale>
<asrwt>0</asrwt>
<pdfrwt beam="1">  1       21 0.33162702E-01 0.30000000E+03</pdfrwt>
<pdfrwt beam="2">0</pdfrwt>
<totfact> 0.88829217E+02</totfact>
</mgrwt>
</event>
<event>
 6    1  0.1273846E-001  0.3000000E+03  0.7818608E-02  0.1093470E+00
         21   -1    0    0  501  502  0.00000000000E+00  0.00000000000E+00  0.22829121435E+01  0.22829121435E+01  0.00000000000E+00 0. -1.
         13   -1    0    0    0    0 -0.00000000000E+00 -0.00000000000E+00 -0.10000000000E+04  0.10000000000E+04  0.00000000000E+00 0.  1.
    9000005    2    1    2  501    0 -0.94606646659E+01 -0.36558949653E+02 -0.80318744349E+03  0.80412175673E+03  0.86988101635E+01 0.  0.
         13    1    3    3    0    0 -0.60260462418E+01 -0.83482162293E+01 -0.22952995517E+03  0.22976075876E+03  0.00000000000E+00 0.  1.
          1    1    3    3  501    0 -0.34346184241E+01 -0.28210733424E+02 -0.57365748832E+03  0.57436099797E+03  0.00000000000E+00 0.  1.
         -1    1    1    2    0  502  0.94606646659E+01  0.36558949653E+02 -0.19452964437E+03  0.19816115541E+03  0.00000000000E+00 0. -1.
<mgrwt>
<rscale>  1 0.30000000E+03</rscale>
<asrwt>0</asrwt>
<pdfrwt beam="1">  1       21 0.83015162E-02 0.30000000E+03</pdfrwt>
<pdfrwt beam="2">0</pdfrwt>
<totfact> 0.11969316E+04</totfact>
</mgrwt>
</event>
<event>
 6    1  0.1273846E-001  0.3000000E+03  0.7818608E-02  0.1093470E+00
         21   -1    0    0  501  502  0.00000000000E+00  0.00000000000E+00  0.17049667631E+01  0.17049667631E+01  0.00000000000E+00 0. -1.
         13   -1    0    0    0    0 -0.00000000000E+00 -0.00000000000E+00 -0.10000000000E+04  0.10000000000E+04  0.00000000000E+00 0.  1.
    9000005    2    1    2  501    0 -0.34175559671E+02 -0.17560866707E+02 -0.68137140067E+03  0.68246063745E+03  0.30303632024E+01 0.  0.
         13    1    3    3    0    0 -0.24744126653E+02 -0.12727963014E+02 -0.46849888271E+03  0.46932448897E+03  0.00000000000E+00 0.  1.
          3    1    3    3  501    0 -0.94314330177E+01 -0.48329036935E+01 -0.21287251796E+03  0.21313614848E+03  0.00000000000E+00 0.  1.
         -1    1    1    2    0  502  0.34175559671E+02  0.17560866707E+02 -0.31692363257E+03  0.31924432931E+03  0.00000000000E+00 0. -1.
<mgrwt>
<rscale>  1 0.30000000E+03</rscale>
<asrwt>0</asrwt>
<pdfrwt beam="1">  1       21 0.61998922E-02 0.30000000E+03</pdfrwt>
<pdfrwt beam="2">0</pdfrwt>
<totfact> 0.19912939E+04</totfact>
</mgrwt>
</event>
<event>
 6    1  0.1273846E-001  0.3000000E+03  0.7818608E-02  0.1093470E+00
         21   -1    0    0  501  502  0.00000000000E+00  0.00000000000E+00  0.12551959532E+01  0.12551959532E+01  0.00000000000E+00 0. -1.
         13   -1    0    0    0    0 -0.00000000000E+00 -0.00000000000E+00 -0.10000000000E+04  0.10000000000E+04  0.00000000000E+00 0.  1.
    9000005    2    1    2  501    0 -0.30687721971E+02  0.10103021734E+02 -0.29739412188E+03  0.29916076733E+03  0.31770509499E+01 0.  0.
         13    1    3    3    0    0 -0.84647685506E+01  0.28233876042E+01 -0.95876717724E+02  0.96291063063E+02  0.00000000000E+00 0.  1.
          1    1    3    3  501    0 -0.22222953420E+02  0.72796341299E+01 -0.20151740416E+03  0.20286970427E+03  0.00000000000E+00 0.  1.
         -1    1    1    2    0  502  0.30687721971E+02 -0.10103021734E+02 -0.70135068216E+03  0.70209442862E+03  0.00000000000E+00 0. -1.
<mgrwt>
<rscale>  1 0.30000000E+03</rscale>
<asrwt>0</asrwt>
<pdfrwt beam="1">  1       21 0.45643585E-02 0.30000000E+03</pdfrwt>
<pdfrwt beam="2">0</pdfrwt>
<totfact> 0.33637325E+04</totfact>
</mgrwt>
</event>
<event>
 6    1  0.1273846E-001  0.3000000E+03  0.7818608E-02  0.1093470E+00
         21   -1    0    0  501  502  0.00000000000E+00  0.00000000000E+00  0.18109085016E+01  0.18109085016E+01  0.00000000000E+00 0. -1.
         13   -1    0    0    0    0 -0.00000000000E+00 -0.00000000000E+00 -0.10000000000E+04  0.10000000000E+04  0.00000000000E+00 0.  1.
    9000005    2    1    2  501    0  0.19143474520E+02 -0.37858727269E+02 -0.52363029225E+03  0.52535964154E+03  0.37834042709E+01 0.  0.
         13    1    3    3    0    0  0.37546681907E+01 -0.59659131123E+01 -0.10339060357E+03  0.10363062558E+03  0.00000000000E+00 0.  1.
          1    1    3    3  501    0  0.15388806330E+02 -0.31892814157E+02 -0.42023968868E+03  0.42172901595E+03  0.00000000000E+00 0.  1.
         -1    1    1    2    0  502 -0.19143474520E+02  0.37858727269E+02 -0.47455879925E+03  0.47645126696E+03  0.00000000000E+00 0. -1.
<mgrwt>
<rscale>  1 0.30000000E+03</rscale>
<asrwt>0</asrwt>
<pdfrwt beam="1">  1       21 0.65851357E-02 0.30000000E+03</pdfrwt>
<pdfrwt beam="2">0</pdfrwt>
<totfact> 0.17941079E+04</totfact>
</mgrwt>
</event>
<event>
 6    1  0.1273846E-001  0.3000000E+03  0.7818608E-02  0.1093470E+00
         21   -1    0    0  501  502  0.00000000000E+00  0.00000000000E+00  0.19296488328E+01  0.19296488328E+01  0.00000000000E+00 0. -1.
         13   -1    0    0    0    0 -0.00000000000E+00 -0.00000000000E+00 -0.10000000000E+04  0.10000000000E+04  0.00000000000E+00 0.  1.
    9000005    2    1    2  501    0  0.27153023927E+02 -0.15507278634E+02 -0.85050793104E+03  0.85109056161E+03  0.36933600645E+01 0.  0.
         13    1    3    3    0    0  0.23281077907E+02 -0.12942930378E+02 -0.75508215486E+03  0.75555184377E+03  0.00000000000E+00 0.  1.
          1    1    3    3  501    0  0.38719460204E+01 -0.25643482562E+01 -0.95425776177E+02  0.95538717842E+02  0.00000000000E+00 0.  1.
         -1    1    1    2    0  502 -0.27153023927E+02  0.15507278634E+02 -0.14756242013E+03  0.15083908722E+03  0.00000000000E+00 0. -1.
<mgrwt>
<rscale>  1 0.30000000E+03</rscale>
<asrwt>0</asrwt>
<pdfrwt beam="1">  1       21 0.70169196E-02 0.30000000E+03</pdfrwt>
<pdfrwt beam="2">0</pdfrwt>
<totfact> 0.16067631E+04</totfact>
</mgrwt>
</event>
<event>
 6    1  0.1273846E-001  0.3000000E+03  0.7818608E-02  0.1093470E+00
         21   -1    0    0  501  502  0.00000000000E+00  0.00000000000E+00  0.41067866941E+01  0.41067866941E+01  0.00000000000E+00 0. -1.
         13   -1    0    0    0    0 -0.00000000000E+00 -0.00000000000E+00 -0.10000000000E+04  0.10000000000E+04  0.00000000000E+00 0.  1.
    9000005    2    1    2  501    0  0.13977082825E+02  0.55557418368E+02 -0.27443392569E+03  0.28037652667E+03  0.38770556809E+01 0.  0.
         13    1    3    3    0    0  0.40366576407E+01  0.10275163635E+02 -0.49955840917E+02  0.51161114475E+02  0.00000000000E+00 0.  1.
          3    1    3    3  501    0  0.99404251839E+01  0.45282254732E+02 -0.22447808477E+03  0.22921541220E+03  0.00000000000E+00 0.  1.
         -3    1    1    2    0  502 -0.13977082825E+02 -0.55557418368E+02 -0.72145928762E+03  0.72373026002E+03  0.00000000000E+00 0. -1.
<mgrwt>
<rscale>  1 0.30000000E+03</rscale>
<asrwt>0</asrwt>
<pdfrwt beam="1">  1       21 0.14933801E-01 0.30000000E+03</pdfrwt>
<pdfrwt beam="2">0</pdfrwt>
<totfact> 0.41518778E+03</totfact>
</mgrwt>
</event>
<event>
 6    1  0.1273846E-001  0.3000000E+03  0.7818608E-02  0.1093470E+00
         21   -1    0    0  501  502  0.00000000000E+00  0.00000000000E+00  0.14887125999E+01  0.14887125999E+01  0.00000000000E+00 0. -1.
         13   -1    0    0    0    0 -0.00000000000E+00 -0.00000000000E+00 -0.10000000000E+04  0.10000000000E+04  0.00000000000E+00 0.  1.
    9000005    2    1    2  501    0 -0.33435606378E+02 -0.52041993939E+01 -0.73908135855E+03  0.73986128390E+03  0.29054074010E+01 0.  0.
         13    1    3    3    0    0 -0.40192264673E+01 -0.14934878073E+01 -0.84266267291E+02  0.84375283647E+02  0.00000000000E+00 0.  1.
          3    1    3    3  501    0 -0.29416379910E+02 -0.37107115865E+01 -0.65481509126E+03  0.65548600025E+03  0.00000000000E+00 0.  1.
         -1    1    1    2    0  502  0.33435606378E+02  0.52041993939E+01 -0.25942992885E+03  0.26162742870E+03  0.00000000000E+00 0. -1.
<mgrwt>
<rscale>  1 0.30000000E+03</rscale>
<asrwt>0</asrwt>
<pdfrwt beam="1">  1       21 0.54135118E-02 0.30000000E+03</pdfrwt>
<pdfrwt beam="2">0</pdfrwt>
<totfact> 0.25148031E+04</totfact>
</mgrwt>
</event>
<event>
 6    1  0.1273846E-001  0.3000000E+03  0.7818608E-02  0.1093470E+00
         21   -1    0    0  501  502  0.00000000000E+00  0.00000000000E+00  0.25577217509E+01  0.25577217509E+01  0.00000000000E+00 0. -1.
         13   -1    0    0    0    0 -0.00000000000E+00 -0.00000000000E+00 -0.10000000000E+04  0.10000000000E+04  0.00000000000E+00 0.  1.
    9000005    2    1    2  501    0 -0.18475246511E+02  0.46954624173E+02 -0.47857166160E+03  0.48123940413E+03  0.38022803893E+01 0.  0.
         13    1    3    3    0    0  0.14280674048E+00  0.45635194953E+00 -0.66604327165E+01  0.66775755209E+01  0.00000000000E+00 0.  1.
          1    1    3    3  501    0 -0.18618053252E+02  0.46498272224E+02 -0.47191122888E+03  0.47456182861E+03  0.00000000000E+00 0.  1.
         -1    1    1    2    0  502  0.18475246511E+02 -0.46954624173E+02 -0.51887061665E+03  0.52131831762E+03  0.00000000000E+00 0. -1.
<mgrwt>
<rscale>  1 0.30000000E+03</rscale>
<asrwt>0</asrwt>
<pdfrwt beam="1">  1       21 0.93008260E-02 0.30000000E+03</pdfrwt>
<pdfrwt beam="2">0</pdfrwt>
<totfact> 0.97899455E+03</totfact>
</mgrwt>
</event>
<event>
 6    1  0.1273846E-001  0.3000000E+03  0.7818608E-02  0.1093470E+00
         21   -1    0    0  501  502  0.00000000000E+00  0.00000000000E+00  0.75881474777E+01  0.75881474777E+01  0.00000000000E+00 0. -1.
         13   -1    0    0    0    0 -0.00000000000E+00 -0.00000000000E+00 -0.10000000000E+04  0.10000000000E+04  0.00000000000E+00 0.  1.
    9000005    2    1    2  501    0  0.59729725749E+02 -0.46705554606E+02 -0.25200564562E+03  0.26330970483E+03  0.87238904585E+01 0.  0.
         13    1    3    3    0    0  0.44155212407E+01 -0.66088730647E+01 -0.29497063008E+02  0.30549153132E+02  0.00000000000E+00 0.  1.
          3    1    3    3  501    0  0.55314204509E+02 -0.40096681541E+02 -0.22250858261E+03  0.23276055170E+03  0.00000000000E+00 0.  1.
         -1    1    1    2    0  502 -0.59729725749E+02  0.46705554606E+02 -0.74040620690E+03  0.74427844265E+03  0.00000000000E+00 0. -1.
<mgrwt>
<rscale>  1 0.30000000E+03</rscale>
<asrwt>0</asrwt>
<pdfrwt beam="1">  1       21 0.27593322E-01 0.30000000E+03</pdfrwt>
<pdfrwt beam="2">0</pdfrwt>
<totfact> 0.12840850E+03</totfact>
</mgrwt>
</event>
<event>
 6    1  0.1273846E-001  0.3000000E+03  0.7818608E-02  0.1093470E+00
         21   -1    0    0  501  502  0.00000000000E+00  0.00000000000E+00  0.17195220220E+01  0.17195220220E+01  0.00000000000E+00 0. -1.
         13   -1    0    0    0    0 -0.00000000000E+00 -0.00000000000E+00 -0.10000000000E+04  0.10000000000E+04  0.00000000000E+00 0.  1.
    9000005    2    1    2  501    0  0.83448611871E+00 -0.34699370771E+02 -0.77246250472E+03  0.77324961209E+03  0.34494487410E+01 0.  0.
         13    1    3    3    0    0  0.14219685302E+01 -0.22374410937E+02 -0.52837865078E+03  0.52885407709E+03  0.00000000000E+00 0.  1.
          3    1    3    3  501    0 -0.58748241151E+00 -0.12324959834E+02 -0.24408385394E+03  0.24439553499E+03  0.00000000000E+00 0.  1.
         -1    1    1    2    0  502 -0.83448611871E+00  0.34699370771E+02 -0.22581797326E+03  0.22846990994E+03  0.00000000000E+00 0. -1.
<mgrwt>
<rscale>  1 0.30000000E+03</rscale>
<asrwt>0</asrwt>
<pdfrwt beam="1">  1       21 0.62528205E-02 0.30000000E+03</pdfrwt>
<pdfrwt beam="2">0</pdfrwt>
<totfact> 0.19622664E+04</totfact>
</mgrwt>
</event>
<event>
 6    1  0.1273846E-001  0.3000000E+03  0.7818608E-02  0.1093470E+00
         21   -1    0    0  501  502  0.00000000000E+00  0.00000000000E+00  0.19065866127E+01  0.19065866127E+01  0.00000000000E+00 0. -1.
         13   -1    0    0    0    0 -0.00000000000E+00 -0.00000000000E+00 -0.10000000000E+04  0.10000000000E+04  0.00000000000E+00 0.  1.
    9000005    2    1    2  501    0 -0.29079943067E+02 -0.22115631119E+02 -0.77257887864E+03  0.77345188736E+03  0.38670545332E+01 0.  0.
         13    1    3    3    0    0 -0.13813889300E+02 -0.11096293498E+02 -0.33522470548E+03  0.33569264876E+03  0.00000000000E+00 0.  1.
          3    1    3    3  501    0 -0.15266053767E+02 -0.11019337620E+02 -0.43735417316E+03  0.43775923860E+03  0.00000000000E+00 0.  1.
         -3    1    1    2    0  502  0.29079943067E+02  0.22115631119E+02 -0.22551453475E+03  0.22845469925E+03  0.00000000000E+00 0. -1.
<mgrwt>
<rscale>  1 0.30000000E+03</rscale>
<asrwt>0</asrwt>
<pdfrwt beam="1">  1       21 0.69330568E-02 0.30000000E+03</pdfrwt>
<pdfrwt beam="2">0</pdfrwt>
<totfact> 0.16407288E+04</totfact>
</mgrwt>
</event>
<event>
 6    1  0.1273846E-001  0.3000000E+03  0.7818608E-02  0.1093470E+00
         21   -1    0    0  501  502  0.00000000000E+00  0.00000000000E+00  0.10339533521E+01  0.10339533521E+01  0.00000000000E+00 0. -1.
         13   -1    0    0    0    0 -0.00000000000E+00 -0.00000000000E+00 -0.10000000000E+04  0.10000000000E+04  0.00000000000E+00 0.  1.
    9000005    2    1    2  501    0  0.30297833617E+02 -0.10204842045E+02 -0.54098780707E+03  0.54194118990E+03  0.32168919487E+01 0.  0.
         13    1    3    3    0    0  0.18257651911E+02 -0.45188912476E+01 -0.32263687454E+03  0.32318464543E+03  0.00000000000E+00 0.  1.
          1    1    3    3  501    0  0.12040181706E+02 -0.56859507973E+01 -0.21835093253E+03  0.21875654447E+03  0.00000000000E+00 0.  1.
         -3    1    1    2    0  502 -0.30297833617E+02  0.10204842045E+02 -0.45797823958E+03  0.45909276345E+03  0.00000000000E+00 0. -1.
<mgrwt>
<rscale>  1 0.30000000E+03</rscale>
<asrwt>0</asrwt>
<pdfrwt beam="1">  1       21 0.37598383E-02 0.30000000E+03</pdfrwt>
<pdfrwt beam="2">0</pdfrwt>
<totfact> 0.46661506E+04</totfact>
</mgrwt>
</event>
<event>
 6    1  0.1273846E-001  0.3000000E+03  0.7818608E-02  0.1093470E+00
         21   -1    0    0  501  502  0.00000000000E+00  0.00000000000E+00  0.15652752751E+01  0.15652752751E+01  0.00000000000E+00 0. -1.
         13   -1    0    0    0    0 -0.00000000000E+00 -0.00000000000E+00 -0.10000000000E+04  0.10000000000E+04  0.00000000000E+00 0.  1.
    9000005    2    1    2  501    0  0.60711869251E+01 -0.38137084468E+02 -0.60516777115E+03  0.60640683453E+03  0.31497931546E+01 0.  0.
         13    1    3    3    0    0  0.30405793432E+01 -0.11236762497E+02 -0.17051294782E+03  0.17090984561E+03  0.00000000000E+00 0.  1.
          3    1    3    3  501    0  0.30306075819E+01 -0.26900321971E+02 -0.43465482333E+03  0.43549698891E+03  0.00000000000E+00 0.  1.
         -3    1    1    2    0  502 -0.60711869251E+01  0.38137084468E+02 -0.39326695357E+03  0.39515844075E+03  0.00000000000E+00 0. -1.
<mgrwt>
<rscale>  1 0.30000000E+03</rscale>
<asrwt>0</asrwt>
<pdfrwt beam="1">  1       21 0.56919221E-02 0.30000000E+03</pdfrwt>
<pdfrwt beam="2">0</pdfrwt>
<totfact> 0.23074458E+04</totfact>
</mgrwt>
</event>
<event>
 6    1  0.1273846E-001  0.3000000E+03  0.7818608E-02  0.1093470E+00
         21   -1    0    0  501  502  0.00000000000E+00  0.00000000000E+00  0.55983625141E+02  0.55983625141E+02  0.00000000000E+00 0. -1.
         13   -1    0    0    0    0 -0.00000000000E+00 -0.00000000000E+00 -0.10000000000E+04  0.10000000000E+04  0.00000000000E+00 0.  1.
    9000005    2    1    2  501    0  0.29312839224E+02  0.42776857179E+02 -0.98716030467E+03  0.98852622575E+03  0.30870402995E+01 0.  0.
         13    1    3    3    0    0  0.18511256476E+02  0.28737044248E+02 -0.67069554391E+03  0.67156607787E+03  0.00000000000E+00 0.  1.
          1    1    3    3  501    0  0.10801582748E+02  0.14039812931E+02 -0.31646476076E+03  0.31696014787E+03  0.00000000000E+00 0.  1.
         -1    1    1    2    0  502 -0.29312839224E+02 -0.42776857179E+02  0.43143929812E+02  0.67457399395E+02  0.00000000000E+00 0. -1.
<mgrwt>
<rscale>  1 0.30000000E+03</rscale>
<asrwt>0</asrwt>
<pdfrwt beam="1">  1       21 0.20357725E+00 0.30000000E+03</pdfrwt>
<pdfrwt beam="2">0</pdfrwt>
<totfact> 0.88863174E+00</totfact>
</mgrwt>
</event>
<event>
 6    1  0.1273846E-001  0.3000000E+03  0.7818608E-02  0.1093470E+00
         21   -1    0    0  501  502  0.00000000000E+00  0.00000000000E+00  0.11663612324E+01  0.11663612324E+01  0.00000000000E+00 0. -1.
         13   -1    0    0    0    0 -0.00000000000E+00 -0.00000000000E+00 -0.10000000000E+04  0.10000000000E+04  0.00000000000E+00 0.  1.
    9000005    2    1    2  501    0  0.62170138018E+01  0.33132694600E+02 -0.56839569046E+03  0.56941034905E+03  0.42494658478E+01 0.  0.
         13    1    3    3    0    0 -0.33447918120E+00  0.56476404612E+01 -0.82395541278E+02  0.82589544990E+02  0.00000000000E+00 0.  1.
          1    1    3    3  501    0  0.65514929830E+01  0.27485054139E+02 -0.48600014918E+03  0.48682080406E+03  0.00000000000E+00 0.  1.
         -1    1    1    2    0  502 -0.62170138018E+01 -0.33132694600E+02 -0.43043794831E+03  0.43175601218E+03  0.00000000000E+00 0. -1.
<mgrwt>
<rscale>  1 0.30000000E+03</rscale>
<asrwt>0</asrwt>
<pdfrwt beam="1">  1       21 0.42413225E-02 0.30000000E+03</pdfrwt>
<pdfrwt beam="2">0</pdfrwt>
<totfact> 0.38091273E+04</totfact>
</mgrwt>
</event>
<event>
 6    1  0.1273846E-001  0.3000000E+03  0.7818608E-02  0.1093470E+00
         21   -1    0    0  501  502  0.00000000000E+00  0.00000000000E+00  0.13991726940E+01  0.13991726940E+01  0.00000000000E+00 0. -1.
         13   -1    0    0    0    0 -0.00000000000E+00 -0.00000000000E+00 -0.10000000000E+04  0.10000000000E+04  0.00000000000E+00 0.  1.
    9000005    2    1    2  501    0 -0.24714123330E+02 -0.27298917664E+02 -0.42089040466E+03  0.42251632511E+03  0.39106839182E+01 0.  0.
         13    1    3    3    0    0 -0.19601756523E+02 -0.20042942416E+02 -0.30440504750E+03  0.30569327984E+03  0.00000000000E+00 0.  1.
          1    1    3    3  501    0 -0.51123668074E+01 -0.72559752476E+01 -0.11648535717E+03  0.11682304527E+03  0.00000000000E+00 0.  1.
         -3    1    1    2    0  502  0.24714123330E+02  0.27298917664E+02 -0.57771042264E+03  0.57888284759E+03  0.00000000000E+00 0. -1.
<mgrwt>
<rscale>  1 0.30000000E+03</rscale>
<asrwt>0</asrwt>
<pdfrwt beam="1">  1       21 0.50879114E-02 0.30000000E+03</pdfrwt>
<pdfrwt beam="2">0</pdfrwt>
<totfact> 0.27961020E+04</totfact>
</mgrwt>
</event>
<event>
 6    1  0.1273846E-001  0.3000000E+03  0.7818608E-02  0.1093470E+00
         21   -1    0    0  501  502  0.00000000000E+00  0.00000000000E+00  0.61481878404E+01  0.61481878404E+01  0.00000000000E+00 0. -1.
         13   -1    0    0    0    0 -0.00000000000E+00 -0.00000000000E+00 -0.10000000000E+04  0.10000000000E+04  0.00000000000E+00 0.  1.
    9000005    2    1    2  501    0 -0.13934260697E+02  0.61948530818E+02 -0.79195978624E+03  0.79450657042E+03  0.29331446783E+01 0.  0.
         13    1    3    3    0    0 -0.63680070627E+01  0.23053009878E+02 -0.30852699109E+03  0.30945257635E+03  0.00000000000E+00 0.  1.
          3    1    3    3  501    0 -0.75662536347E+01  0.38895520940E+02 -0.48343279515E+03  0.48505399408E+03  0.00000000000E+00 0.  1.
         -3    1    1    2    0  502  0.13934260697E+02 -0.61948530818E+02 -0.20189202592E+03  0.21164161742E+03  0.00000000000E+00 0. -1.
<mgrwt>
<rscale>  1 0.30000000E+03</rscale>
<asrwt>0</asrwt>
<pdfrwt beam="1">  1       21 0.22357094E-01 0.30000000E+03</pdfrwt>
<pdfrwt beam="2">0</pdfrwt>
<totfact> 0.19375347E+03</totfact>
</mgrwt>
</event>
<event>
 6    1  0.1273846E-001  0.3000000E+03  0.7818608E-02  0.1093470E+00
         21   -1    0    0  501  502  0.00000000000E+00  0.00000000000E+00  0.22427808155E+01  0.22427808155E+01  0.00000000000E+00 0. -1.
         13   -1    0    0    0    0 -0.00000000000E+00 -0.00000000000E+00 -0.10000000000E+04  0.10000000000E+04  0.00000000000E+00 0.  1.
    9000005    2    1    2  501    0 -0.32176131920E+02  0.30119929100E+02 -0.68125615614E+03  0.68268772061E+03  0.31717502037E+01 0.  0.
         13    1    3    3    0    0 -0.28518178408E+02  0.27433014575E+02 -0.59782065065E+03  0.59912885687E+03  0.00000000000E+00 0.  1.
          1    1    3    3  501    0 -0.36579535122E+01  0.26869145252E+01 -0.83435505484E+02  0.83558863736E+02  0.00000000000E+00 0.  1.
         -1    1    1    2    0  502  0.32176131920E+02 -0.30119929100E+02 -0.31650106305E+03  0.31955506021E+03  0.00000000000E+00 0. -1.
<mgrwt>
<rscale>  1 0.30000000E+03</rscale>
<asrwt>0</asrwt>
<pdfrwt beam="1">  1       21 0.81555838E-02 0.30000000E+03</pdfrwt>
<pdfrwt beam="2">0</pdfrwt>
<totfact> 0.12348701E+04</totfact>
</mgrwt>
</event>
<event>
 6    1  0.1273846E-001  0.3000000E+03  0.7818608E-02  0.1093470E+00
         21   -1    0    0  501  502  0.00000000000E+00  0.00000000000E+00  0.21473356939E+01  0.21473356939E+01  0.00000000000E+00 0. -1.
         13   -1    0    0    0    0 -0.00000000000E+00 -0.00000000000E+00 -0.10000000000E+04  0.10000000000E+04  0.00000000000E+00 0.  1.
    9000005    2    1    2  501    0  0.12741266870E+01  0.37008539377E+02 -0.79966430537E+03  0.80052917926E+03  0.35651338706E+01 0.  0.
         13    1    3    3    0    0  0.13979018094E-01  0.30152885644E+02 -0.62816586664E+03  0.62888914184E+03  0.00000000000E+00 0.  1.
          1    1    3    3  501    0  0.12601476689E+01  0.68556537331E+01 -0.17149843873E+03  0.17164003743E+03  0.00000000000E+00 0.  1.
         -1    1    1    2    0  502 -0.12741266870E+01 -0.37008539377E+02 -0.19818835893E+03  0.20161815643E+03  0.00000000000E+00 0. -1.
<mgrwt>
<rscale>  1 0.30000000E+03</rscale>
<asrwt>0</asrwt>
<pdfrwt beam="1">  1       21 0.78085099E-02 0.30000000E+03</pdfrwt>
<pdfrwt beam="2">0</pdfrwt>
<totfact> 0.13328808E+04</totfact>
</mgrwt>
</event>
<event>
 6    1  0.1273846E-001  0.3000000E+03  0.7818608E-02  0.1093470E+00
         21   -1    0    0  501  502  0.00000000000E+00  0.00000000000E+00  0.22992380866E+01  0.22992380866E+01  0.00000000000E+00 0. -1.
         13   -1    0    0    0    0 -0.00000000000E+00 -0.00000000000E+00 -0.10000000000E+04  0.10000000000E+04  0.00000000000E+00 0.  1.
    9000005    2    1    2  501    0 -0.34784615804E+02  0.32392985973E+02 -0.56098577312E+03  0.56300519479E+03  0.32460257885E+01 0.  0.
         13    1    3    3    0    0 -0.65638147781E+01  0.64054149278E+01 -0.94069291315E+02  0.94515313962E+02  0.00000000000E+00 0.  1.
          1    1    3    3  501    0 -0.28220801026E+02  0.25987571045E+02 -0.46691648181E+03  0.46848988083E+03  0.00000000000E+00 0.  1.
         -1    1    1    2    0  502  0.34784615804E+02 -0.32392985973E+02 -0.43671498879E+03  0.43929404329E+03  0.00000000000E+00 0. -1.
<mgrwt>
<rscale>  1 0.30000000E+03</rscale>
<asrwt>0</asrwt>
<pdfrwt beam="1">  1       21 0.83608834E-02 0.30000000E+03</pdfrwt>
<pdfrwt beam="2">0</pdfrwt>
<totfact> 0.11820064E+04</totfact>
</mgrwt>
</event>
<event>
 6    1  0.1273846E-001  0.3000000E+03  0.7818608E-02  0.1093470E+00
         21   -1    0    0  501  502  0.00000000000E+00  0.00000000000E+00  0.18524591385E+01  0.18524591385E+01  0.00000000000E+00 0. -1.
         13   -1    0    0    0    0 -0.00000000000E+00 -0.00000000000E+00 -0.10000000000E+04  0.10000000000E+04  0.00000000000E+00 0.  1.
    9000005    2    1    2  501    0  0.32031501762E+02 -0.13183201506E+01 -0.83263899547E+03  0.83326766246E+03  0.44210239957E+01 0.  0.
         13    1    3    3    0    0  0.68846444169E+01 -0.14948543170E+01 -0.21996002655E+03  0.22007282022E+03  0.00000000000E+00 0.  1.
          3    1    3    3  501    0  0.25146857345E+02  0.17653416638E+00 -0.61267896892E+03  0.61319484224E+03  0.00000000000E+00 0.  1.
         -3    1    1    2    0  502 -0.32031501762E+02  0.13183201506E+01 -0.16550854539E+03  0.16858479668E+03  0.00000000000E+00 0. -1.
<mgrwt>
<rscale>  1 0.30000000E+03</rscale>
<asrwt>0</asrwt>
<pdfrwt beam="1">  1       21 0.67362293E-02 0.30000000E+03</pdfrwt>
<pdfrwt beam="2">0</pdfrwt>
<totfact> 0.17249031E+04</totfact>
</mgrwt>
</event>
<event>
 6    1  0.1273846E-001  0.3000000E+03  0.7818608E-02  0.1093470E+00
         21   -1    0    0  501  502  0.00000000000E+00  0.00000000000E+00  0.18935073789E+01  0.18935073789E+01  0.00000000000E+00 0. -1.
         13   -1    0    0    0    0 -0.00000000000E+00 -0.00000000000E+00 -0.10000000000E+04  0.10000000000E+04  0.00000000000E+00 0.  1.
    9000005    2    1    2  501    0 -0.27913133021E+02 -0.29057166427E+02 -0.68529044798E+03  0.68649322250E+03  0.51463124715E+01 0.  0.
         13    1    3    3    0    0 -0.26638595836E+02 -0.27748960307E+02 -0.63045321228E+03  0.63162557933E+03  0.00000000000E+00 0.  1.
          1    1    3    3  501    0 -0.12745371857E+01 -0.13082061198E+01 -0.54837235696E+02  0.54867643170E+02  0.00000000000E+00 0.  1.
         -3    1    1    2    0  502  0.27913133021E+02  0.29057166427E+02 -0.31281604464E+03  0.31540028488E+03  0.00000000000E+00 0. -1.
<mgrwt>
<rscale>  1 0.30000000E+03</rscale>
<asrwt>0</asrwt>
<pdfrwt beam="1">  1       21 0.68854959E-02 0.30000000E+03</pdfrwt>
<pdfrwt beam="2">0</pdfrwt>
<totfact> 0.16604822E+04</totfact>
</mgrwt>
</event>
<event>
 6    1  0.1273846E-001  0.3000000E+03  0.7818608E-02  0.1093470E+00
         21   -1    0    0  501  502  0.00000000000E+00  0.00000000000E+00  0.24144476851E+01  0.24144476851E+01  0.00000000000E+00 0. -1.
         13   -1    0    0    0    0 -0.00000000000E+00 -0.00000000000E+00 -0.10000000000E+04  0.10000000000E+04  0.00000000000E+00 0.  1.
    9000005    2    1    2  501    0 -0.27603434787E+02 -0.15328587831E+02 -0.88270366336E+03  0.88327266816E+03  0.28167009767E+01 0.  0.
         13    1    3    3    0    0 -0.26019702202E+02 -0.13628652721E+02 -0.81468867554E+03  0.81521800957E+03  0.00000000000E+00 0.  1.
          3    1    3    3  501    0 -0.15837325855E+01 -0.16999351096E+01 -0.68014987817E+02  0.68054658592E+02  0.00000000000E+00 0.  1.
         -1    1    1    2    0  502  0.27603434787E+02  0.15328587831E+02 -0.11488188896E+03  0.11914177952E+03  0.00000000000E+00 0. -1.
<mgrwt>
<rscale>  1 0.30000000E+03</rscale>
<asrwt>0</asrwt>
<pdfrwt beam="1">  1       21 0.87798283E-02 0.30000000E+03</pdfrwt>
<pdfrwt beam="2">0</pdfrwt>
<totfact> 0.10843097E+04</totfact>
</mgrwt>
</event>
<event>
 6    1  0.1273846E-001  0.3000000E+03  0.7818608E-02  0.1093470E+00
         21   -1    0    0  501  502  0.00000000000E+00  0.00000000000E+00  0.26020132763E+01  0.26020132763E+01  0.00000000000E+00 0. -1.
         13   -1    0    0    0    0 -0.00000000000E+00 -0.00000000000E+00 -0.10000000000E+04  0.10000000000E+04  0.00000000000E+00 0.  1.
    9000005    2    1    2  501    0  0.92443157425E-01 -0.40332935678E+02 -0.80189528421E+03  0.80298222233E+03  0.10846580029E+02 0.  0.
         13    1    3    3    0    0 -0.78220504644E+00 -0.26436982709E+02 -0.41904395037E+03  0.41987778965E+03  0.00000000000E+00 0.  1.
          3    1    3    3  501    0  0.87464820387E+00 -0.13895952969E+02 -0.38285133384E+03  0.38310443268E+03  0.00000000000E+00 0.  1.
         -1    1    1    2    0  502 -0.92443157425E-01  0.40332935678E+02 -0.19550270251E+03  0.19961979094E+03  0.00000000000E+00 0. -1.
<mgrwt>
<rscale>  1 0.30000000E+03</rscale>
<asrwt>0</asrwt>
<pdfrwt beam="1">  1       21 0.94618864E-02 0.30000000E+03</pdfrwt>
<pdfrwt beam="2">0</pdfrwt>
<totfact> 0.94954641E+03</totfact>
</mgrwt>
</event>
<event>
 6    1  0.1273846E-001  0.3000000E+03  0.7818608E-02  0.1093470E+00
         21   -1    0    0  501  502  0.00000000000E+00  0.00000000000E+00  0.12538324538E+01  0.12538324538E+01  0.00000000000E+00 0. -1.
         13   -1    0    0    0    0 -0.00000000000E+00 -0.00000000000E+00 -0.10000000000E+04  0.10000000000E+04  0.00000000000E+00 0.  1.
    9000005    2    1    2  501    0  0.43596352709E+01 -0.32462458483E+02 -0.68715648129E+03  0.68794735277E+03  0.38357234458E+01 0.  0.
         13    1    3    3    0    0  0.91538397565E+00 -0.14411236753E+01 -0.45877482493E+02  0.45909238342E+02  0.00000000000E+00 0.  1.
          3    1    3    3  501    0  0.34442512953E+01 -0.31021334808E+02 -0.64127899880E+03  0.64203811443E+03  0.00000000000E+00 0.  1.
         -3    1    1    2    0  502 -0.43596352709E+01  0.32462458483E+02 -0.31158968625E+03  0.31330647968E+03  0.00000000000E+00 0. -1.
<mgrwt>
<rscale>  1 0.30000000E+03</rscale>
<asrwt>0</asrwt>
<pdfrwt beam="1">  1       21 0.45594004E-02 0.30000000E+03</pdfrwt>
<pdfrwt beam="2">0</pdfrwt>
<totfact> 0.33699480E+04</totfact>
</mgrwt>
</event>
<event>
 6    1  0.1273846E-001  0.3000000E+03  0.7818608E-02  0.1093470E+00
         21   -1    0    0  501  502  0.00000000000E+00  0.00000000000E+00  0.20146444562E+01  0.20146444562E+01  0.00000000000E+00 0. -1.
         13   -1    0    0    0    0 -0.00000000000E+00 -0.00000000000E+00 -0.10000000000E+04  0.10000000000E+04  0.00000000000E+00 0.  1.
    9000005    2    1    2  501    0  0.15539455631E+02 -0.28413380249E+02 -0.84559959532E+03  0.84622563721E+03  0.32184801680E+01 0.  0.
         13    1    3    3    0    0  0.12805069634E+02 -0.23610975909E+02 -0.73010364506E+03  0.73059755031E+03  0.00000000000E+00 0.  1.
          1    1    3    3  501    0  0.27343859968E+01 -0.48024043409E+01 -0.11549595026E+03  0.11562808690E+03  0.00000000000E+00 0.  1.
         -1    1    1    2    0  502 -0.15539455631E+02  0.28413380249E+02 -0.15238576022E+03  0.15578900724E+03  0.00000000000E+00 0. -1.
<mgrwt>
<rscale>  1 0.30000000E+03</rscale>
<asrwt>0</asrwt>
<pdfrwt beam="1">  1       21 0.73259953E-02 0.30000000E+03</pdfrwt>
<pdfrwt beam="2">0</pdfrwt>
<totfact> 0.14904086E+04</totfact>
</mgrwt>
</event>
<event>
 6    1  0.1273846E-001  0.3000000E+03  0.7818608E-02  0.1093470E+00
         21   -1    0    0  501  502  0.00000000000E+00  0.00000000000E+00  0.14280318740E+01  0.14280318740E+01  0.00000000000E+00 0. -1.
         13   -1    0    0    0    0 -0.00000000000E+00 -0.00000000000E+00 -0.10000000000E+04  0.10000000000E+04  0.00000000000E+00 0.  1.
    9000005    2    1    2  501    0 -0.47356037266E+00 -0.35762229629E+02 -0.65880984671E+03  0.65978865991E+03  0.33912085149E+01 0.  0.
         13    1    3    3    0    0 -0.12843127811E+01 -0.19060251135E+02 -0.32655870416E+03  0.32711699726E+03  0.00000000000E+00 0.  1.
          3    1    3    3  501    0  0.81075240847E+00 -0.16701978495E+02 -0.33225114255E+03  0.33267166265E+03  0.00000000000E+00 0.  1.
         -1    1    1    2    0  502  0.47356037266E+00  0.35762229629E+02 -0.33976212142E+03  0.34163937197E+03  0.00000000000E+00 0. -1.
<mgrwt>
<rscale>  1 0.30000000E+03</rscale>
<asrwt>0</asrwt>
<pdfrwt beam="1">  1       21 0.51928541E-02 0.30000000E+03</pdfrwt>
<pdfrwt beam="2">0</pdfrwt>
<totfact> 0.27003242E+04</totfact>
</mgrwt>
</event>
<event>
 6    1  0.1273846E-001  0.3000000E+03  0.7818608E-02  0.1093470E+00
         21   -1    0    0  501  502  0.00000000000E+00  0.00000000000E+00  0.12215332533E+01  0.12215332533E+01  0.00000000000E+00 0. -1.
         13   -1    0    0    0    0 -0.00000000000E+00 -0.00000000000E+00 -0.10000000000E+04  0.10000000000E+04  0.00000000000E+00 0.  1.
    9000005    2    1    2  501    0  0.22603277845E+02  0.26360961426E+02 -0.46227457161E+03  0.46359504771E+03  0.40963704599E+01 0.  0.
         13    1    3    3    0    0  0.95835228249E+01  0.13523406030E+02 -0.23791319718E+03  0.23848986523E+03  0.00000000000E+00 0.  1.
          1    1    3    3  501    0  0.13019755020E+02  0.12837555396E+02 -0.22436137443E+03  0.22510518249E+03  0.00000000000E+00 0.  1.
         -3    1    1    2    0  502 -0.22603277845E+02 -0.26360961426E+02 -0.53650389514E+03  0.53762648554E+03  0.00000000000E+00 0. -1.
<mgrwt>
<rscale>  1 0.30000000E+03</rscale>
<asrwt>0</asrwt>
<pdfrwt beam="1">  1       21 0.44419485E-02 0.30000000E+03</pdfrwt>
<pdfrwt beam="2">0</pdfrwt>
<totfact> 0.35225435E+04</totfact>
</mgrwt>
</event>
<event>
 6    1  0.1273846E-001  0.3000000E+03  0.7818608E-02  0.1093470E+00
         21   -1    0    0  501  502  0.00000000000E+00  0.00000000000E+00  0.10800898111E+01  0.10800898111E+01  0.00000000000E+00 0. -1.
         13   -1    0    0    0    0 -0.00000000000E+00 -0.00000000000E+00 -0.10000000000E+04  0.10000000000E+04  0.00000000000E+00 0.  1.
    9000005    2    1    2  501    0 -0.92677948762E+01 -0.29290977599E+02 -0.67616079183E+03  0.67686210470E+03  0.22447650219E+01 0.  0.
         13    1    3    3    0    0 -0.15709036882E+01 -0.82728559200E+01 -0.18618534793E+03  0.18637567348E+03  0.00000000000E+00 0.  1.
          1    1    3    3  501    0 -0.76968911880E+01 -0.21018121679E+02 -0.48997544391E+03  0.49048643121E+03  0.00000000000E+00 0.  1.
         -1    1    1    2    0  502  0.92677948762E+01  0.29290977599E+02 -0.32275911836E+03  0.32421798512E+03  0.00000000000E+00 0. -1.
<mgrwt>
<rscale>  1 0.30000000E+03</rscale>
<asrwt>0</asrwt>
<pdfrwt beam="1">  1       21 0.39276076E-02 0.30000000E+03</pdfrwt>
<pdfrwt beam="2">0</pdfrwt>
<totfact> 0.43360066E+04</totfact>
</mgrwt>
</event>
<event>
 6    1  0.1273846E-001  0.3000000E+03  0.7818608E-02  0.1093470E+00
         21   -1    0    0  501  502  0.00000000000E+00  0.00000000000E+00  0.19071802216E+01  0.19071802216E+01  0.00000000000E+00 0. -1.
         13   -1    0    0    0    0 -0.00000000000E+00 -0.00000000000E+00 -0.10000000000E+04  0.10000000000E+04  0.00000000000E+00 0.  1.
    9000005    2    1    2  501    0  0.29616927374E+02  0.53401820509E+01 -0.86163028033E+03  0.86216561659E+03  0.41389044473E+01 0.  0.
         13    1    3    3    0    0  0.24690245325E+02  0.57666950601E+01 -0.69666211854E+03  0.69712335379E+03  0.00000000000E+00 0.  1.
          3    1    3    3  501    0  0.49266820492E+01 -0.42651300919E+00 -0.16496816178E+03  0.16504226280E+03  0.00000000000E+00 0.  1.
         -1    1    1    2    0  502 -0.29616927374E+02 -0.53401820509E+01 -0.13646253945E+03  0.13974156363E+03  0.00000000000E+00 0. -1.
<mgrwt>
<rscale>  1 0.30000000E+03</rscale>
<asrwt>0</asrwt>
<pdfrwt beam="1">  1       21 0.69352154E-02 0.30000000E+03</pdfrwt>
<pdfrwt beam="2">0</pdfrwt>
<totfact> 0.16398408E+04</totfact>
</mgrwt>
</event>
<event>
 6    1  0.1273846E-001  0.3000000E+03  0.7818608E-02  0.1093470E+00
         21   -1    0    0  501  502  0.00000000000E+00  0.00000000000E+00  0.12654559572E+01  0.12654559572E+01  0.00000000000E+00 0. -1.
         13   -1    0    0    0    0 -0.00000000000E+00 -0.00000000000E+00 -0.10000000000E+04  0.10000000000E+04  0.00000000000E+00 0.  1.
    9000005    2    1    2  501    0  0.25205699841E+02 -0.21864982234E+02 -0.67036692882E+03  0.67120683165E+03  0.36588038024E+01 0.  0.
         13    1    3    3    0    0  0.68533380510E+01 -0.59592667728E+01 -0.15166048281E+03  0.15193216627E+03  0.00000000000E+00 0.  1.
          1    1    3    3  501    0  0.18352361790E+02 -0.15905715461E+02 -0.51870644601E+03  0.51927466538E+03  0.00000000000E+00 0.  1.
         -1    1    1    2    0  502 -0.25205699841E+02  0.21864982234E+02 -0.32836761522E+03  0.33005862431E+03  0.00000000000E+00 0. -1.
<mgrwt>
<rscale>  1 0.30000000E+03</rscale>
<asrwt>0</asrwt>
<pdfrwt beam="1">  1       21 0.46016677E-02 0.30000000E+03</pdfrwt>
<pdfrwt beam="2">0</pdfrwt>
<totfact> 0.33175347E+04</totfact>
</mgrwt>
</event>
<event>
 6    1  0.1273846E-001  0.3000000E+03  0.7818608E-02  0.1093470E+00
         21   -1    0    0  501  502  0.00000000000E+00  0.00000000000E+00  0.14177564431E+01  0.14177564431E+01  0.00000000000E+00 0. -1.
         13   -1    0    0    0    0 -0.00000000000E+00 -0.00000000000E+00 -0.10000000000E+04  0.10000000000E+04  0.00000000000E+00 0.  1.
    9000005    2    1    2  501    0  0.13089776747E+02 -0.30257620069E+02 -0.74073579919E+03  0.74147227235E+03  0.21773000142E+01 0.  0.
         13    1    3    3    0    0  0.46023924210E+01 -0.11118978715E+02 -0.29391911435E+03  0.29416536078E+03  0.00000000000E+00 0.  1.
          3    1    3    3  501    0  0.84873843256E+01 -0.19138641354E+02 -0.44681668485E+03  0.44730691157E+03  0.00000000000E+00 0.  1.
         -3    1    1    2    0  502 -0.13089776747E+02  0.30257620069E+02 -0.25784644436E+03  0.25994548409E+03  0.00000000000E+00 0. -1.
<mgrwt>
<rscale>  1 0.30000000E+03</rscale>
<asrwt>0</asrwt>
<pdfrwt beam="1">  1       21 0.51554888E-02 0.30000000E+03</pdfrwt>
<pdfrwt beam="2">0</pdfrwt>
<totfact> 0.27338341E+04</totfact>
</mgrwt>
</event>
<event>
 6    1  0.1273846E-001  0.3000000E+03  0.7818608E-02  0.1093470E+00
         21   -1    0    0  501  502  0.00000000000E+00  0.00000000000E+00  0.31885671319E+01  0.31885671319E+01  0.00000000000E+00 0. -1.
         13   -1    0    0    0    0 -0.00000000000E+00 -0.00000000000E+00 -0.10000000000E+04  0.10000000000E+04  0.00000000000E+00 0.  1.
    9000005    2    1    2  501    0  0.27392429959E+02 -0.48395925136E+02 -0.41412987632E+03  0.41785933744E+03  0.32187943797E+01 0.  0.
         13    1    3    3    0    0  0.65844390329E+01 -0.11323395079E+02 -0.10809279108E+03  0.10888354144E+03  0.00000000000E+00 0.  1.
          3    1    3    3  501    0  0.20807990926E+02 -0.37072530058E+02 -0.30603708524E+03  0.30897579600E+03  0.00000000000E+00 0.  1.
         -1    1    1    2    0  502 -0.27392429959E+02  0.48395925136E+02 -0.58268155655E+03  0.58532922969E+03  0.00000000000E+00 0. -1.
<mgrwt>
<rscale>  1 0.30000000E+03</rscale>
<asrwt>0</asrwt>
<pdfrwt beam="1">  1       21 0.11594814E-01 0.30000000E+03</pdfrwt>
<pdfrwt beam="2">0</pdfrwt>
<totfact> 0.65949561E+03</totfact>
</mgrwt>
</event>
<event>
 6    1  0.1273846E-001  0.3000000E+03  0.7818608E-02  0.1093470E+00
         21   -1    0    0  501  502  0.00000000000E+00  0.00000000000E+00  0.14282401311E+01  0.14282401311E+01  0.00000000000E+00 0. -1.
         13   -1    0    0    0    0 -0.00000000000E+00 -0.00000000000E+00 -0.10000000000E+04  0.10000000000E+04  0.00000000000E+00 0.  1.
    9000005    2    1    2  501    0 -0.99404179857E+00 -0.36589697206E+02 -0.38382844867E+03  0.38559617477E+03  0.45097593763E+01 0.  0.
         13    1    3    3    0    0  0.10969115832E+00 -0.99621416747E+01 -0.85060438215E+02  0.85641896571E+02  0.00000000000E+00 0.  1.
          3    1    3    3  501    0 -0.11037329569E+01 -0.26627555532E+02 -0.29876801046E+03  0.29995427820E+03  0.00000000000E+00 0.  1.
         -1    1    1    2    0  502  0.99404179857E+00  0.36589697206E+02 -0.61474331120E+03  0.61583206536E+03  0.00000000000E+00 0. -1.
<mgrwt>
<rscale>  1 0.30000000E+03</rscale>
<asrwt>0</asrwt>
<pdfrwt beam="1">  1       21 0.51936114E-02 0.30000000E+03</pdfrwt>
<pdfrwt beam="2">0</pdfrwt>
<totfact> 0.26996517E+04</totfact>
</mgrwt>
</event>
<event>
 6    1  0.1273846E-001  0.3000000E+03  0.7818608E-02  0.1093470E+00
         21   -1    0    0  501  502  0.00000000000E+00  0.00000000000E+00  0.11269815921E+01  0.11269815921E+01  0.00000000000E+00 0. -1.
         13   -1    0    0    0    0 -0.00000000000E+00 -0.00000000000E+00 -0.10000000000E+04  0.10000000000E+04  0.00000000000E+00 0.  1.
    9000005    2    1    2  501    0 -0.24255565107E+02 -0.23056586285E+02 -0.48350041991E+03  0.48466899309E+03  0.33820401672E+01 0.  0.
         13    1    3    3    0    0 -0.23540813251E+02 -0.22177644048E+02 -0.45615842612E+03  0.45730353979E+03  0.00000000000E+00 0.  1.
          3    1    3    3  501    0 -0.71475185683E+00 -0.87894223651E+00 -0.27341993787E+02  0.27365453293E+02  0.00000000000E+00 0.  1.
         -3    1    1    2    0  502  0.24255565107E+02  0.23056586285E+02 -0.51537259850E+03  0.51645798851E+03  0.00000000000E+00 0. -1.
<mgrwt>
<rscale>  1 0.30000000E+03</rscale>
<asrwt>0</asrwt>
<pdfrwt beam="1">  1       21 0.40981235E-02 0.30000000E+03</pdfrwt>
<pdfrwt beam="2">0</pdfrwt>
<totfact> 0.40364782E+04</totfact>
</mgrwt>
</event>
<event>
 6    1  0.1273846E-001  0.3000000E+03  0.7818608E-02  0.1093470E+00
         21   -1    0    0  501  502  0.00000000000E+00  0.00000000000E+00  0.25203698040E+01  0.25203698040E+01  0.00000000000E+00 0. -1.
         13   -1    0    0    0    0 -0.00000000000E+00 -0.00000000000E+00 -0.10000000000E+04  0.10000000000E+04  0.00000000000E+00 0.  1.
    9000005    2    1    2  501    0  0.38149481180E+02 -0.32283156755E+02 -0.54069431503E+03  0.54300931523E+03  0.33449957212E+01 0.  0.
         13    1    3    3    0    0  0.88894127555E+01 -0.72762524375E+01 -0.10978624413E+03  0.11038561912E+03  0.00000000000E+00 0.  1.
          1    1    3    3  501    0  0.29260068424E+02 -0.25006904318E+02 -0.43090807090E+03  0.43262369611E+03  0.00000000000E+00 0.  1.
         -1    1    1    2    0  502 -0.38149481180E+02  0.32283156755E+02 -0.45678531517E+03  0.45951105458E+03  0.00000000000E+00 0. -1.
<mgrwt>
<rscale>  1 0.30000000E+03</rscale>
<asrwt>0</asrwt>
<pdfrwt beam="1">  1       21 0.91650004E-02 0.30000000E+03</pdfrwt>
<pdfrwt beam="2">0</pdfrwt>
<totfact> 0.10049101E+04</totfact>
</mgrwt>
</event>
<event>
 6    1  0.1273846E-001  0.3000000E+03  0.7818608E-02  0.1093470E+00
         21   -1    0    0  501  502  0.00000000000E+00  0.00000000000E+00  0.13587404558E+01  0.13587404558E+01  0.00000000000E+00 0. -1.
         13   -1    0    0    0    0 -0.00000000000E+00 -0.00000000000E+00 -0.10000000000E+04  0.10000000000E+04  0.00000000000E+00 0.  1.
    9000005    2    1    2  501    0 -0.19659797851E+02  0.30812043545E+02 -0.44117070436E+03  0.44269129951E+03  0.28472082247E+01 0.  0.
         13    1    3    3    0    0 -0.19740240307E+02  0.30464939048E+02 -0.43630330476E+03  0.43781087623E+03  0.00000000000E+00 0.  1.
          3    1    3    3  501    0  0.80442455915E-01  0.34710449648E+00 -0.48673996011E+01  0.48804232805E+01  0.00000000000E+00 0.  1.
         -1    1    1    2    0  502  0.19659797851E+02 -0.30812043545E+02 -0.55747055518E+03  0.55866744095E+03  0.00000000000E+00 0. -1.
<mgrwt>
<rscale>  1 0.30000000E+03</rscale>
<asrwt>0</asrwt>
<pdfrwt beam="1">  1       21 0.49408848E-02 0.30000000E+03</pdfrwt>
<pdfrwt beam="2">0</pdfrwt>
<totfact> 0.29394462E+04</totfact>
</mgrwt>
</event>
<event>
 6    1  0.1273846E-001  0.3000000E+03  0.7818608E-02  0.1093470E+00
         21   -1    0    0  501  502  0.00000000000E+00  0.00000000000E+00  0.11750863079E+01  0.11750863079E+01  0.00000000000E+00 0. -1.
         13   -1    0    0    0    0 -0.00000000000E+00 -0.00000000000E+00 -0.10000000000E+04  0.10000000000E+04  0.00000000000E+00 0.  1.
    9000005    2    1    2  501    0  0.46678637165E+01 -0.29772036149E+02 -0.73662004867E+03  0.73724412123E+03  0.34110248821E+01 0.  0.
         13    1    3    3    0    0  0.30175759743E+01 -0.23459421192E+02 -0.60557034502E+03  0.60603208907E+03  0.00000000000E+00 0.  1.
          1    1    3    3  501    0  0.16502877421E+01 -0.63126149569E+01 -0.13104970365E+03  0.13121203216E+03  0.00000000000E+00 0.  1.
         -1    1    1    2    0  502 -0.46678637165E+01  0.29772036149E+02 -0.26220486502E+03  0.26393096508E+03  0.00000000000E+00 0. -1.
<mgrwt>
<rscale>  1 0.30000000E+03</rscale>
<asrwt>0</asrwt>
<pdfrwt beam="1">  1       21 0.42730501E-02 0.30000000E+03</pdfrwt>
<pdfrwt beam="2">0</pdfrwt>
<totfact> 0.37614491E+04</totfact>
</mgrwt>
</event>
<event>
 6    1  0.1273846E-001  0.3000000E+03  0.7818608E-02  0.1093470E+00
         21   -1    0    0  501  502  0.00000000000E+00  0.00000000000E+00  0.28058083710E+01  0.28058083710E+01  0.00000000000E+00 0. -1.
         13   -1    0    0    0    0 -0.00000000000E+00 -0.00000000000E+00 -0.10000000000E+04  0.10000000000E+04  0.00000000000E+00 0.  1.
    9000005    2    1    2  501    0  0.38300548239E+02  0.22606335456E+02 -0.77050681400E+03  0.77179683544E+03  0.34097473801E+01 0.  0.
         13    1    3    3    0    0  0.58378056570E+01  0.26865831219E+01 -0.94951883971E+02  0.95169101989E+02  0.00000000000E+00 0.  1.
          3    1    3    3  501    0  0.32462742582E+02  0.19919752334E+02 -0.67555493003E+03  0.67662773345E+03  0.00000000000E+00 0.  1.
         -3    1    1    2    0  502 -0.38300548239E+02 -0.22606335456E+02 -0.22668737763E+03  0.23100897293E+03  0.00000000000E+00 0. -1.
<mgrwt>
<rscale>  1 0.30000000E+03</rscale>
<asrwt>0</asrwt>
<pdfrwt beam="1">  1       21 0.10202961E-01 0.30000000E+03</pdfrwt>
<pdfrwt beam="2">0</pdfrwt>
<totfact> 0.82996157E+03</totfact>
</mgrwt>
</event>
<event>
 6    1  0.1273846E-001  0.3000000E+03  0.7818608E-02  0.1093470E+00
         21   -1    0    0  501  502  0.00000000000E+00  0.00000000000E+00  0.21893421123E+01  0.21893421123E+01  0.00000000000E+00 0. -1.
         13   -1    0    0    0    0 -0.00000000000E+00 -0.00000000000E+00 -0.10000000000E+04  0.10000000000E+04  0.00000000000E+00 0.  1.
    9000005    2    1    2  501    0 -0.38891869975E+02  0.10298028314E+01 -0.77682999969E+03  0.77780999961E+03  0.31478614337E+01 0.  0.
         13    1    3    3    0    0 -0.26712594283E+02  0.59072653019E+00 -0.56157111664E+03  0.56220639511E+03  0.00000000000E+00 0.  1.
          1    1    3    3  501    0 -0.12179275692E+02  0.43907630121E+00 -0.21525888305E+03  0.21560360450E+03  0.00000000000E+00 0.  1.
         -3    1    1    2    0  502  0.38891869975E+02 -0.10298028314E+01 -0.22098065820E+03  0.22437934250E+03  0.00000000000E+00 0. -1.
<mgrwt>
<rscale>  1 0.30000000E+03</rscale>
<asrwt>0</asrwt>
<pdfrwt beam="1">  1       21 0.79612608E-02 0.30000000E+03</pdfrwt>
<pdfrwt beam="2">0</pdfrwt>
<totfact> 0.12883231E+04</totfact>
</mgrwt>
</event>
<event>
 6    1  0.1273846E-001  0.3000000E+03  0.7818608E-02  0.1093470E+00
         21   -1    0    0  501  502  0.00000000000E+00  0.00000000000E+00  0.16716211696E+01  0.16716211696E+01  0.00000000000E+00 0. -1.
         13   -1    0    0    0    0 -0.00000000000E+00 -0.00000000000E+00 -0.10000000000E+04  0.10000000000E+04  0.00000000000E+00 0.  1.
    9000005    2    1    2  501    0  0.21603992067E+02 -0.30038184881E+02 -0.71134884030E+03  0.71231668245E+03  0.29763201504E+01 0.  0.
         13    1    3    3    0    0  0.14474631438E+01 -0.35232756623E+01 -0.69781885944E+02  0.69885765552E+02  0.00000000000E+00 0.  1.
          1    1    3    3  501    0  0.20156528923E+02 -0.26514909218E+02 -0.64156695435E+03  0.64243091690E+03  0.00000000000E+00 0.  1.
         -3    1    1    2    0  502 -0.21603992067E+02  0.30038184881E+02 -0.28697953853E+03  0.28935493872E+03  0.00000000000E+00 0. -1.
<mgrwt>
<rscale>  1 0.30000000E+03</rscale>
<asrwt>0</asrwt>
<pdfrwt beam="1">  1       21 0.60786353E-02 0.30000000E+03</pdfrwt>
<pdfrwt beam="2">0</pdfrwt>
<totfact> 0.20603629E+04</totfact>
</mgrwt>
</event>
<event>
 6    1  0.1273846E-001  0.3000000E+03  0.7818608E-02  0.1093470E+00
         21   -1    0    0  501  502  0.00000000000E+00  0.00000000000E+00  0.43692043481E+01  0.43692043481E+01  0.00000000000E+00 0. -1.
         13   -1    0    0    0    0 -0.00000000000E+00 -0.00000000000E+00 -0.10000000000E+04  0.10000000000E+04  0.00000000000E+00 0.  1.
    9000005    2    1    2  501    0  0.63565492281E+02  0.14981490852E+02 -0.42275227311E+03  0.42778025330E+03  0.33828715051E+01 0.  0.
         13    1    3    3    0    0  0.42924483101E+02  0.11638932700E+02 -0.29107500544E+03  0.29445311137E+03  0.00000000000E+00 0.  1.
          1    1    3    3  501    0  0.20641009180E+02  0.33425581520E+01 -0.13167726767E+03  0.13332714194E+03  0.00000000000E+00 0.  1.
         -3    1    1    2    0  502 -0.63565492281E+02 -0.14981490852E+02 -0.57287852254E+03  0.57658895104E+03  0.00000000000E+00 0. -1.
<mgrwt>
<rscale>  1 0.30000000E+03</rscale>
<asrwt>0</asrwt>
<pdfrwt beam="1">  1       21 0.15888049E-01 0.30000000E+03</pdfrwt>
<pdfrwt beam="2">0</pdfrwt>
<totfact> 0.37007707E+03</totfact>
</mgrwt>
</event>
<event>
 6    1  0.1273846E-001  0.3000000E+03  0.7818608E-02  0.1093470E+00
         21   -1    0    0  501  502  0.00000000000E+00  0.00000000000E+00  0.46346242834E+01  0.46346242834E+01  0.00000000000E+00 0. -1.
         13   -1    0    0    0    0 -0.00000000000E+00 -0.00000000000E+00 -0.10000000000E+04  0.10000000000E+04  0.00000000000E+00 0.  1.
    9000005    2    1    2  501    0 -0.45798292950E+02 -0.39834831708E+02 -0.72485366055E+03  0.72739666603E+03  0.29636268596E+01 0.  0.
         13    1    3    3    0    0 -0.70104069222E+01 -0.47929860296E+01 -0.97868214123E+02  0.98235970275E+02  0.00000000000E+00 0.  1.
          3    1    3    3  501    0 -0.38787886028E+02 -0.35041845679E+02 -0.62698544643E+03  0.62916069575E+03  0.00000000000E+00 0.  1.
         -1    1    1    2    0  502  0.45798292950E+02  0.39834831708E+02 -0.27051171517E+03  0.27723795826E+03  0.00000000000E+00 0. -1.
<mgrwt>
<rscale>  1 0.30000000E+03</rscale>
<asrwt>0</asrwt>
<pdfrwt beam="1">  1       21 0.16853215E-01 0.30000000E+03</pdfrwt>
<pdfrwt beam="2">0</pdfrwt>
<totfact> 0.33149069E+03</totfact>
</mgrwt>
</event>
<event>
 6    1  0.1273846E-001  0.3000000E+03  0.7818608E-02  0.1093470E+00
         21   -1    0    0  501  502  0.00000000000E+00  0.00000000000E+00  0.94277297891E+00  0.94277297891E+00  0.00000000000E+00 0. -1.
         13   -1    0    0    0    0 -0.00000000000E+00 -0.00000000000E+00 -0.10000000000E+04  0.10000000000E+04  0.00000000000E+00 0.  1.
    9000005    2    1    2  501    0  0.13452906506E+02 -0.27489190068E+02 -0.51589650576E+03  0.51681374180E+03  0.32561926157E+01 0.  0.
         13    1    3    3    0    0  0.61025580043E+01 -0.91309172039E+01 -0.19315979751E+03  0.19347176082E+03  0.00000000000E+00 0.  1.
          1    1    3    3  501    0  0.73503485019E+01 -0.18358272864E+02 -0.32273670826E+03  0.32334198098E+03  0.00000000000E+00 0.  1.
         -1    1    1    2    0  502 -0.13452906506E+02  0.27489190068E+02 -0.48316072126E+03  0.48412903118E+03  0.00000000000E+00 0. -1.
<mgrwt>
<rscale>  1 0.30000000E+03</rscale>
<asrwt>0</asrwt>
<pdfrwt beam="1">  1       21 0.34282726E-02 0.30000000E+03</pdfrwt>
<pdfrwt beam="2">0</pdfrwt>
<totfact> 0.54471757E+04</totfact>
</mgrwt>
</event>
<event>
 6    1  0.1273846E-001  0.3000000E+03  0.7818608E-02  0.1093470E+00
         21   -1    0    0  501  502  0.00000000000E+00  0.00000000000E+00  0.29530949100E+01  0.29530949100E+01  0.00000000000E+00 0. -1.
         13   -1    0    0    0    0 -0.00000000000E+00 -0.00000000000E+00 -0.10000000000E+04  0.10000000000E+04  0.00000000000E+00 0.  1.
    9000005    2    1    2  501    0 -0.33282831492E+02 -0.21494955204E+02 -0.84154485264E+03  0.84248294726E+03  0.31618735116E+01 0.  0.
         13    1    3    3    0    0 -0.28698906216E+02 -0.17787610765E+02 -0.69533863223E+03  0.69615791297E+03  0.00000000000E+00 0.  1.
          3    1    3    3  501    0 -0.45839252754E+01 -0.37073444397E+01 -0.14620622041E+03  0.14632503429E+03  0.00000000000E+00 0.  1.
         -3    1    1    2    0  502  0.33282831492E+02  0.21494955204E+02 -0.15550205245E+03  0.16047014765E+03  0.00000000000E+00 0. -1.
<mgrwt>
<rscale>  1 0.30000000E+03</rscale>
<asrwt>0</asrwt>
<pdfrwt beam="1">  1       21 0.10738550E-01 0.30000000E+03</pdfrwt>
<pdfrwt beam="2">0</pdfrwt>
<totfact> 0.75724429E+03</totfact>
</mgrwt>
</event>
<event>
 6    1  0.1273846E-001  0.3000000E+03  0.7818608E-02  0.1093470E+00
         21   -1    0    0  501  502  0.00000000000E+00  0.00000000000E+00  0.10510790887E+01  0.10510790887E+01  0.00000000000E+00 0. -1.
         13   -1    0    0    0    0 -0.00000000000E+00 -0.00000000000E+00 -0.10000000000E+04  0.10000000000E+04  0.00000000000E+00 0.  1.
    9000005    2    1    2  501    0 -0.27304950065E+02 -0.17321126920E+02 -0.49653495068E+03  0.49759762621E+03  0.32952425372E+01 0.  0.
         13    1    3    3    0    0 -0.75202293026E+01 -0.60442603070E+01 -0.16441931098E+03  0.16470214557E+03  0.00000000000E+00 0.  1.
          3    1    3    3  501    0 -0.19784720763E+02 -0.11276866613E+02 -0.33211563970E+03  0.33289548064E+03  0.00000000000E+00 0.  1.
         -1    1    1    2    0  502  0.27304950065E+02  0.17321126920E+02 -0.50241397023E+03  0.50345345288E+03  0.00000000000E+00 0. -1.
<mgrwt>
<rscale>  1 0.30000000E+03</rscale>
<asrwt>0</asrwt>
<pdfrwt beam="1">  1       21 0.38221138E-02 0.30000000E+03</pdfrwt>
<pdfrwt beam="2">0</pdfrwt>
<totfact> 0.45391339E+04</totfact>
</mgrwt>
</event>
<event>
 6    1  0.1273846E-001  0.3000000E+03  0.7818608E-02  0.1093470E+00
         21   -1    0    0  501  502  0.00000000000E+00  0.00000000000E+00  0.78436839568E+01  0.78436839568E+01  0.00000000000E+00 0. -1.
         13   -1    0    0    0    0 -0.00000000000E+00 -0.00000000000E+00 -0.10000000000E+04  0.10000000000E+04  0.00000000000E+00 0.  1.
    9000005    2    1    2  501    0 -0.20688628742E+02  0.70663152807E+02 -0.77601203076E+03  0.77950259571E+03  0.28851865158E+01 0.  0.
         13    1    3    3    0    0 -0.20575904572E+02  0.70631931642E+02 -0.77493916176E+03  0.77842336941E+03  0.00000000000E+00 0.  1.
          3    1    3    3  501    0 -0.11272416974E+00  0.31221164521E-01 -0.10728690003E+01  0.10792262930E+01  0.00000000000E+00 0.  1.
         -3    1    1    2    0  502  0.20688628742E+02 -0.70663152807E+02 -0.21614428528E+03  0.22834108825E+03  0.00000000000E+00 0. -1.
<mgrwt>
<rscale>  1 0.30000000E+03</rscale>
<asrwt>0</asrwt>
<pdfrwt beam="1">  1       21 0.28522547E-01 0.30000000E+03</pdfrwt>
<pdfrwt beam="2">0</pdfrwt>
<totfact> 0.12024477E+03</totfact>
</mgrwt>
</event>
<event>
 6    1  0.1273846E-001  0.3000000E+03  0.7818608E-02  0.1093470E+00
         21   -1    0    0  501  502  0.00000000000E+00  0.00000000000E+00  0.15468750177E+01  0.15468750177E+01  0.00000000000E+00 0. -1.
         13   -1    0    0    0    0 -0.00000000000E+00 -0.00000000000E+00 -0.10000000000E+04  0.10000000000E+04  0.00000000000E+00 0.  1.
    9000005    2    1    2  501    0 -0.45719154382E+01 -0.38941209323E+02 -0.52030056902E+03  0.52178944989E+03  0.37719619614E+01 0.  0.
         13    1    3    3    0    0 -0.46233161473E+01 -0.39008825875E+02 -0.51975591873E+03  0.52123821675E+03  0.00000000000E+00 0.  1.
          3    1    3    3  501    0  0.51400709041E-01  0.67616551400E-01 -0.54465029305E+00  0.55123313819E+00  0.00000000000E+00 0.  1.
         -3    1    1    2    0  502  0.45719154382E+01  0.38941209323E+02 -0.47815255596E+03  0.47975742513E+03  0.00000000000E+00 0. -1.
<mgrwt>
<rscale>  1 0.30000000E+03</rscale>
<asrwt>0</asrwt>
<pdfrwt beam="1">  1       21 0.56250119E-02 0.30000000E+03</pdfrwt>
<pdfrwt beam="2">0</pdfrwt>
<totfact> 0.23548149E+04</totfact>
</mgrwt>
</event>
<event>
 6    1  0.1273846E-001  0.3000000E+03  0.7818608E-02  0.1093470E+00
         21   -1    0    0  501  502  0.00000000000E+00  0.00000000000E+00  0.15747577798E+01  0.15747577798E+01  0.00000000000E+00 0. -1.
         13   -1    0    0    0    0 -0.00000000000E+00 -0.00000000000E+00 -0.10000000000E+04  0.10000000000E+04  0.00000000000E+00 0.  1.
    9000005    2    1    2  501    0 -0.18455908495E+02 -0.28841727337E+02 -0.24859777466E+03  0.25096587368E+03  0.32481360543E+01 0.  0.
         13    1    3    3    0    0 -0.66166782214E+01 -0.78379647603E+01 -0.69731037988E+02  0.70481428626E+02  0.00000000000E+00 0.  1.
          1    1    3    3  501    0 -0.11839230274E+02 -0.21003762577E+02 -0.17886673668E+03  0.18048444505E+03  0.00000000000E+00 0.  1.
         -3    1    1    2    0  502  0.18455908495E+02  0.28841727337E+02 -0.74982746756E+03  0.75060888410E+03  0.00000000000E+00 0. -1.
<mgrwt>
<rscale>  1 0.30000000E+03</rscale>
<asrwt>0</asrwt>
<pdfrwt beam="1">  1       21 0.57264040E-02 0.30000000E+03</pdfrwt>
<pdfrwt beam="2">0</pdfrwt>
<totfact> 0.22836024E+04</totfact>
</mgrwt>
</event>
<event>
 6    1  0.1273846E-001  0.3000000E+03  0.7818608E-02  0.1093470E+00
         21   -1    0    0  501  502  0.00000000000E+00  0.00000000000E+00  0.14087181771E+01  0.14087181771E+01  0.00000000000E+00 0. -1.
         13   -1    0    0    0    0 -0.00000000000E+00 -0.00000000000E+00 -0.10000000000E+04  0.10000000000E+04  0.00000000000E+00 0.  1.
    9000005    2    1    2  501    0  0.30316433368E+02 -0.90767704679E+01 -0.76759785512E+03  0.76825761465E+03  0.34382254166E+01 0.  0.
         13    1    3    3    0    0  0.16731335726E+02 -0.44604901075E+01 -0.45870222264E+03  0.45902893441E+03  0.00000000000E+00 0.  1.
          3    1    3    3  501    0  0.13585097642E+02 -0.46162803604E+01 -0.30889563247E+03  0.30922868024E+03  0.00000000000E+00 0.  1.
         -1    1    1    2    0  502 -0.30316433368E+02  0.90767704679E+01 -0.23099342671E+03  0.23315110353E+03  0.00000000000E+00 0. -1.
<mgrwt>
<rscale>  1 0.30000000E+03</rscale>
<asrwt>0</asrwt>
<pdfrwt beam="1">  1       21 0.51226224E-02 0.30000000E+03</pdfrwt>
<pdfrwt beam="2">0</pdfrwt>
<totfact> 0.27638462E+04</totfact>
</mgrwt>
</event>
<event>
 6    1  0.1273846E-001  0.3000000E+03  0.7818608E-02  0.1093470E+00
         21   -1    0    0  501  502  0.00000000000E+00  0.00000000000E+00  0.29172170691E+01  0.29172170691E+01  0.00000000000E+00 0. -1.
         13   -1    0    0    0    0 -0.00000000000E+00 -0.00000000000E+00 -0.10000000000E+04  0.10000000000E+04  0.00000000000E+00 0.  1.
    9000005    2    1    2  501    0  0.23788322363E+02 -0.36018939445E+02 -0.79776427954E+03  0.79897822110E+03  0.86662457771E+01 0.  0.
         13    1    3    3    0    0  0.22345150495E+02 -0.27767324977E+02 -0.65189588912E+03  0.65286949717E+03  0.00000000000E+00 0.  1.
          1    1    3    3  501    0  0.14431718679E+01 -0.82516144674E+01 -0.14586839041E+03  0.14610872393E+03  0.00000000000E+00 0.  1.
         -3    1    1    2    0  502 -0.23788322363E+02  0.36018939445E+02 -0.19931850340E+03  0.20393899597E+03  0.00000000000E+00 0. -1.
<mgrwt>
<rscale>  1 0.30000000E+03</rscale>
<asrwt>0</asrwt>
<pdfrwt beam="1">  1       21 0.10608084E-01 0.30000000E+03</pdfrwt>
<pdfrwt beam="2">0</pdfrwt>
<totfact> 0.77404050E+03</totfact>
</mgrwt>
</event>
<event>
 6    1  0.1273846E-001  0.3000000E+03  0.7818608E-02  0.1093470E+00
         21   -1    0    0  501  502  0.00000000000E+00  0.00000000000E+00  0.22742968842E+01  0.22742968842E+01  0.00000000000E+00 0. -1.
         13   -1    0    0    0    0 -0.00000000000E+00 -0.00000000000E+00 -0.10000000000E+04  0.10000000000E+04  0.00000000000E+00 0.  1.
    9000005    2    1    2  501    0  0.36195475073E+02 -0.68141560387E+01 -0.18188610686E+03  0.18560374399E+03  0.31062481975E+01 0.  0.
         13    1    3    3    0    0  0.25805623566E+02 -0.35318577559E+01 -0.13097520550E+03  0.13353991419E+03  0.00000000000E+00 0.  1.
          1    1    3    3  501    0  0.10389851507E+02 -0.32822982828E+01 -0.50910901361E+02  0.52063829803E+02  0.00000000000E+00 0.  1.
         -3    1    1    2    0  502 -0.36195475073E+02  0.68141560387E+01 -0.81583959626E+03  0.81667055289E+03  0.00000000000E+00 0. -1.
<mgrwt>
<rscale>  1 0.30000000E+03</rscale>
<asrwt>0</asrwt>
<pdfrwt beam="1">  1       21 0.82701879E-02 0.30000000E+03</pdfrwt>
<pdfrwt beam="2">0</pdfrwt>
<totfact> 0.12049242E+04</totfact>
</mgrwt>
</event>
<event>
 6    1  0.1273846E-001  0.3000000E+03  0.7818608E-02  0.1093470E+00
         21   -1    0    0  501  502  0.00000000000E+00  0.00000000000E+00  0.17747499693E+01  0.17747499693E+01  0.00000000000E+00 0. -1.
         13   -1    0    0    0    0 -0.00000000000E+00 -0.00000000000E+00 -0.10000000000E+04  0.10000000000E+04  0.00000000000E+00 0.  1.
    9000005    2    1    2  501    0 -0.18050833564E+02 -0.28475445379E+02 -0.20112359805E+03  0.20396040617E+03  0.35301572862E+01 0.  0.
         13    1    3    3    0    0 -0.14340231927E+02 -0.24707427415E+02 -0.17327534084E+03  0.17561447254E+03  0.00000000000E+00 0.  1.
          1    1    3    3  501    0 -0.37106016373E+01 -0.37680179637E+01 -0.27848257215E+02  0.28345933638E+02  0.00000000000E+00 0.  1.
         -3    1    1    2    0  502  0.18050833564E+02  0.28475445379E+02 -0.79710165198E+03  0.79781434380E+03  0.00000000000E+00 0. -1.
<mgrwt>
<rscale>  1 0.30000000E+03</rscale>
<asrwt>0</asrwt>
<pdfrwt beam="1">  1       21 0.64536499E-02 0.30000000E+03</pdfrwt>
<pdfrwt beam="2">0</pdfrwt>
<totfact> 0.18578777E+04</totfact>
</mgrwt>
</event>
<event>
 6    1  0.1273846E-001  0.3000000E+03  0.7818608E-02  0.1093470E+00
         21   -1    0    0  501  502  0.00000000000E+00  0.00000000000E+00  0.22643754809E+01  0.22643754809E+01  0.00000000000E+00 0. -1.
         13   -1    0    0    0    0 -0.00000000000E+00 -0.00000000000E+00 -0.10000000000E+04  0.10000000000E+04  0.00000000000E+00 0.  1.
    9000005    2    1    2  501    0 -0.36283140767E+02  0.28993988959E+02 -0.39761825177E+03  0.40035243942E+03  0.49682902083E+01 0.  0.
         13    1    3    3    0    0 -0.18017535888E+02  0.11476707872E+02 -0.17381431582E+03  0.17512213683E+03  0.00000000000E+00 0.  1.
          3    1    3    3  501    0 -0.18265604880E+02  0.17517281087E+02 -0.22380393595E+03  0.22523030259E+03  0.00000000000E+00 0.  1.
         -1    1    1    2    0  502  0.36283140767E+02 -0.28993988959E+02 -0.60011737274E+03  0.60191193606E+03  0.00000000000E+00 0. -1.
<mgrwt>
<rscale>  1 0.30000000E+03</rscale>
<asrwt>0</asrwt>
<pdfrwt beam="1">  1       21 0.82341100E-02 0.30000000E+03</pdfrwt>
<pdfrwt beam="2">0</pdfrwt>
<totfact> 0.12142302E+04</totfact>
</mgrwt>
</event>
<event>
 6    1  0.1273846E-001  0.3000000E+03  0.7818608E-02  0.1093470E+00
         21   -1    0    0  501  502  0.00000000000E+00  0.00000000000E+00  0.54891608395E+01  0.54891608395E+01  0.00000000000E+00 0. -1.
         13   -1    0    0    0    0 -0.00000000000E+00 -0.00000000000E+00 -0.10000000000E+04  0.10000000000E+04  0.00000000000E+00 0.  1.
    9000005    2    1    2  501    0  0.20261773596E+02 -0.38162467426E+02 -0.90558492997E+03  0.90662192302E+03  0.35117682417E+01 0.  0.
         13    1    3    3    0    0  0.12552529768E+02 -0.26944400198E+02 -0.63164062626E+03  0.63233966146E+03  0.00000000000E+00 0.  1.
          3    1    3    3  501    0  0.77092438273E+01 -0.11218067228E+02 -0.27394430371E+03  0.27428226156E+03  0.00000000000E+00 0.  1.
         -1    1    1    2    0  502 -0.20261773596E+02  0.38162467426E+02 -0.88925909186E+02  0.98867237819E+02  0.00000000000E+00 0. -1.
<mgrwt>
<rscale>  1 0.30000000E+03</rscale>
<asrwt>0</asrwt>
<pdfrwt beam="1">  1       21 0.19960627E-01 0.30000000E+03</pdfrwt>
<pdfrwt beam="2">0</pdfrwt>
<totfact> 0.24082634E+03</totfact>
</mgrwt>
</event>
<event>
 6    1  0.1273846E-001  0.3000000E+03  0.7818608E-02  0.1093470E+00
         21   -1    0    0  501  502  0.00000000000E+00  0.00000000000E+00  0.26232174636E+01  0.26232174636E+01  0.00000000000E+00 0. -1.
         13   -1    0    0    0    0 -0.00000000000E+00 -0.00000000000E+00 -0.10000000000E+04  0.10000000000E+04  0.00000000000E+00 0.  1.
    9000005    2    1    2  501    0 -0.34727560988E+02  0.83453123191E+01 -0.85757054467E+03  0.85832688391E+03  0.47066794904E+01 0.  0.
         13    1    3    3    0    0 -0.32258348071E+02  0.77362276712E+01 -0.81974327037E+03  0.82041421218E+03  0.00000000000E+00 0.  1.
          1    1    3    3  501    0 -0.24692129166E+01  0.60908464792E+00 -0.37827274300E+02  0.37912671727E+02  0.00000000000E+00 0.  1.
         -1    1    1    2    0  502  0.34727560988E+02 -0.83453123191E+01 -0.13980623787E+03  0.14429633355E+03  0.00000000000E+00 0. -1.
<mgrwt>
<rscale>  1 0.30000000E+03</rscale>
<asrwt>0</asrwt>
<pdfrwt beam="1">  1       21 0.95389927E-02 0.30000000E+03</pdfrwt>
<pdfrwt beam="2">0</pdfrwt>
<totfact> 0.93591681E+03</totfact>
</mgrwt>
</event>
<event>
 6    1  0.1273846E-001  0.3000000E+03  0.7818608E-02  0.1093470E+00
         21   -1    0    0  501  502  0.00000000000E+00  0.00000000000E+00  0.42358104436E+01  0.42358104436E+01  0.00000000000E+00 0. -1.
         13   -1    0    0    0    0 -0.00000000000E+00 -0.00000000000E+00 -0.10000000000E+04  0.10000000000E+04  0.00000000000E+00 0.  1.
    9000005    2    1    2  501    0 -0.41408795848E+02 -0.58660687415E+00 -0.88430550886E+03  0.88533219408E+03  0.10091005784E+02 0.  0.
         13    1    3    3    0    0 -0.21784872939E+02 -0.52462635730E+01 -0.44449649752E+03  0.44506093996E+03  0.00000000000E+00 0.  1.
          1    1    3    3  501    0 -0.19623922909E+02  0.46596566988E+01 -0.43980901134E+03  0.44027125412E+03  0.00000000000E+00 0.  1.
         -3    1    1    2    0  502  0.41408795848E+02  0.58660687415E+00 -0.11145868070E+03  0.11890361636E+03  0.00000000000E+00 0. -1.
<mgrwt>
<rscale>  1 0.30000000E+03</rscale>
<asrwt>0</asrwt>
<pdfrwt beam="1">  1       21 0.15402980E-01 0.30000000E+03</pdfrwt>
<pdfrwt beam="2">0</pdfrwt>
<totfact> 0.39205326E+03</totfact>
</mgrwt>
</event>
<event>
 6    1  0.1273846E-001  0.3000000E+03  0.7818608E-02  0.1093470E+00
         21   -1    0    0  501  502  0.00000000000E+00  0.00000000000E+00  0.15418213087E+01  0.15418213087E+01  0.00000000000E+00 0. -1.
         13   -1    0    0    0    0 -0.00000000000E+00 -0.00000000000E+00 -0.10000000000E+04  0.10000000000E+04  0.00000000000E+00 0.  1.
    9000005    2    1    2  501    0  0.92012835289E+01  0.30325131041E+02 -0.79429516665E+03  0.79493394954E+03  0.33007840484E+01 0.  0.
         13    1    3    3    0    0  0.64870663579E+01  0.16099071351E+02 -0.41817655018E+03  0.41853660443E+03  0.00000000000E+00 0.  1.
          1    1    3    3  501    0  0.27142171710E+01  0.14226059690E+02 -0.37611861647E+03  0.37639734511E+03  0.00000000000E+00 0.  1.
         -1    1    1    2    0  502 -0.92012835289E+01 -0.30325131041E+02 -0.20416301204E+03  0.20660787177E+03  0.00000000000E+00 0. -1.
<mgrwt>
<rscale>  1 0.30000000E+03</rscale>
<asrwt>0</asrwt>
<pdfrwt beam="1">  1       21 0.56066348E-02 0.30000000E+03</pdfrwt>
<pdfrwt beam="2">0</pdfrwt>
<totfact> 0.23680864E+04</totfact>
</mgrwt>
</event>
<event>
 6    1  0.1273846E-001  0.3000000E+03  0.7818608E-02  0.1093470E+00
         21   -1    0    0  501  502  0.00000000000E+00  0.00000000000E+00  0.12270951614E+01  0.12270951614E+01  0.00000000000E+00 0. -1.
         13   -1    0    0    0    0 -0.00000000000E+00 -0.00000000000E+00 -0.10000000000E+04  0.10000000000E+04  0.00000000000E+00 0.  1.
    9000005    2    1    2  501    0  0.34134664068E+02 -0.42771464670E+01 -0.41091664757E+03  0.41236510073E+03  0.30026287025E+01 0.  0.
         13    1    3    3    0    0  0.21990101830E+02 -0.21361160544E+01 -0.24780704786E+03  0.24878999285E+03  0.00000000000E+00 0.  1.
          1    1    3    3  501    0  0.12144562238E+02 -0.21410304126E+01 -0.16310959971E+03  0.16357510789E+03  0.00000000000E+00 0.  1.
         -1    1    1    2    0  502 -0.34134664068E+02  0.42771464670E+01 -0.58785625727E+03  0.58886199443E+03  0.00000000000E+00 0. -1.
<mgrwt>
<rscale>  1 0.30000000E+03</rscale>
<asrwt>0</asrwt>
<pdfrwt beam="1">  1       21 0.44621736E-02 0.30000000E+03</pdfrwt>
<pdfrwt beam="2">0</pdfrwt>
<totfact> 0.34955159E+04</totfact>
</mgrwt>
</event>
<event>
 6    1  0.1273846E-001  0.3000000E+03  0.7818608E-02  0.1093470E+00
         21   -1    0    0  501  502  0.00000000000E+00  0.00000000000E+00  0.36417603582E+01  0.36417603582E+01  0.00000000000E+00 0. -1.
         13   -1    0    0    0    0 -0.00000000000E+00 -0.00000000000E+00 -0.10000000000E+04  0.10000000000E+04  0.00000000000E+00 0.  1.
    9000005    2    1    2  501    0 -0.17514367756E+02  0.36132640185E+02 -0.87272823505E+03  0.87365445790E+03  0.22844677308E+01 0.  0.
         13    1    3    3    0    0 -0.49000373965E+01  0.93187288913E+01 -0.20887145996E+03  0.20913664399E+03  0.00000000000E+00 0.  1.
          1    1    3    3  501    0 -0.12614330359E+02  0.26813911294E+02 -0.66385677509E+03  0.66451781391E+03  0.00000000000E+00 0.  1.
         -3    1    1    2    0  502  0.17514367756E+02 -0.36132640185E+02 -0.12363000459E+03  0.12998730246E+03  0.00000000000E+00 0. -1.
<mgrwt>
<rscale>  1 0.30000000E+03</rscale>
<asrwt>0</asrwt>
<pdfrwt beam="1">  1       21 0.13242793E-01 0.30000000E+03</pdfrwt>
<pdfrwt beam="2">0</pdfrwt>
<totfact> 0.51784262E+03</totfact>
</mgrwt>
</event>
<event>
 6    1  0.1273846E-001  0.3000000E+03  0.7818608E-02  0.1093470E+00
         21   -1    0    0  501  502  0.00000000000E+00  0.00000000000E+00  0.26690684276E+01  0.26690684276E+01  0.00000000000E+00 0. -1.
         13   -1    0    0    0    0 -0.00000000000E+00 -0.00000000000E+00 -0.10000000000E+04  0.10000000000E+04  0.00000000000E+00 0.  1.
    9000005    2    1    2  501    0 -0.19560953954E+02 -0.41477811290E+02 -0.72907114360E+03  0.73051772526E+03  0.28939123785E+01 0.  0.
         13    1    3    3    0    0 -0.68683742439E+01 -0.12242474563E+02 -0.20898431975E+03  0.20945524259E+03  0.00000000000E+00 0.  1.
          3    1    3    3  501    0 -0.12692579711E+02 -0.29235336727E+02 -0.52008682386E+03  0.52106248267E+03  0.00000000000E+00 0.  1.
         -3    1    1    2    0  502  0.19560953954E+02  0.41477811290E+02 -0.26825978797E+03  0.27215134317E+03  0.00000000000E+00 0. -1.
<mgrwt>
<rscale>  1 0.30000000E+03</rscale>
<asrwt>0</asrwt>
<pdfrwt beam="1">  1       21 0.97057238E-02 0.30000000E+03</pdfrwt>
<pdfrwt beam="2">0</pdfrwt>
<totfact> 0.90744241E+03</totfact>
</mgrwt>
</event>
<event>
 6    1  0.1273846E-001  0.3000000E+03  0.7818608E-02  0.1093470E+00
         21   -1    0    0  501  502  0.00000000000E+00  0.00000000000E+00  0.19782887893E+01  0.19782887893E+01  0.00000000000E+00 0. -1.
         13   -1    0    0    0    0 -0.00000000000E+00 -0.00000000000E+00 -0.10000000000E+04  0.10000000000E+04  0.00000000000E+00 0.  1.
    9000005    2    1    2  501    0  0.35961150048E+02  0.11046467106E+02 -0.76567334675E+03  0.76660413724E+03  0.33167103246E+01 0.  0.
         13    1    3    3    0    0  0.32756274774E+01  0.20468443013E+01 -0.76612226238E+02  0.76709533411E+02  0.00000000000E+00 0.  1.
          3    1    3    3  501    0  0.32685522571E+02  0.89996228050E+01 -0.68906112051E+03  0.68989460383E+03  0.00000000000E+00 0.  1.
         -1    1    1    2    0  502 -0.35961150048E+02 -0.11046467106E+02 -0.23234836446E+03  0.23537415155E+03  0.00000000000E+00 0. -1.
<mgrwt>
<rscale>  1 0.30000000E+03</rscale>
<asrwt>0</asrwt>
<pdfrwt beam="1">  1       21 0.71937926E-02 0.30000000E+03</pdfrwt>
<pdfrwt beam="2">0</pdfrwt>
<totfact> 0.15385546E+04</totfact>
</mgrwt>
</event>
<event>
 6    1  0.1273846E-001  0.3000000E+03  0.7818608E-02  0.1093470E+00
         21   -1    0    0  501  502  0.00000000000E+00  0.00000000000E+00  0.19832515262E+01  0.19832515262E+01  0.00000000000E+00 0. -1.
         13   -1    0    0    0    0 -0.00000000000E+00 -0.00000000000E+00 -0.10000000000E+04  0.10000000000E+04  0.00000000000E+00 0.  1.
    9000005    2    1    2  501    0 -0.35106827019E+02 -0.27062273059E+02 -0.45726753168E+03  0.45942028615E+03  0.29236754257E+01 0.  0.
         13    1    3    3    0    0 -0.31285088092E+02 -0.25164579075E+02 -0.41103078706E+03  0.41298707085E+03  0.00000000000E+00 0.  1.
          3    1    3    3  501    0 -0.38217389261E+01 -0.18976939846E+01 -0.46236744611E+02  0.46433215300E+02  0.00000000000E+00 0.  1.
         -1    1    1    2    0  502  0.35106827019E+02  0.27062273059E+02 -0.54074921680E+03  0.54256296537E+03  0.00000000000E+00 0. -1.
<mgrwt>
<rscale>  1 0.30000000E+03</rscale>
<asrwt>0</asrwt>
<pdfrwt beam="1">  1       21 0.72118389E-02 0.30000000E+03</pdfrwt>
<pdfrwt beam="2">0</pdfrwt>
<totfact> 0.15318442E+04</totfact>
</mgrwt>
</event>
<event>
 6    1  0.1273846E-001  0.3000000E+03  0.7818608E-02  0.1093470E+00
         21   -1    0    0  501  502  0.00000000000E+00  0.00000000000E+00  0.58934426769E+01  0.58934426769E+01  0.00000000000E+00 0. -1.
         13   -1    0    0    0    0 -0.00000000000E+00 -0.00000000000E+00 -0.10000000000E+04  0.10000000000E+04  0.00000000000E+00 0.  1.
    9000005    2    1    2  501    0  0.71679368841E+02 -0.26913420185E+02 -0.52991511279E+03  0.53542988269E+03  0.35872558115E+01 0.  0.
         13    1    3    3    0    0  0.68355857525E+02 -0.25690940791E+02 -0.49959284419E+03  0.50490153264E+03  0.00000000000E+00 0.  1.
          3    1    3    3  501    0  0.33235113154E+01 -0.12224793933E+01 -0.30322268600E+02  0.30528350043E+02  0.00000000000E+00 0.  1.
         -1    1    1    2    0  502 -0.71679368841E+02  0.26913420185E+02 -0.46419144453E+03  0.47046355999E+03  0.00000000000E+00 0. -1.
<mgrwt>
<rscale>  1 0.30000000E+03</rscale>
<asrwt>0</asrwt>
<pdfrwt beam="1">  1       21 0.21430746E-01 0.30000000E+03</pdfrwt>
<pdfrwt beam="2">0</pdfrwt>
<totfact> 0.21019239E+03</totfact>
</mgrwt>
</event>
<event>
 6    1  0.1273846E-001  0.3000000E+03  0.7818608E-02  0.1093470E+00
         21   -1    0    0  501  502  0.00000000000E+00  0.00000000000E+00  0.16603603730E+01  0.16603603730E+01  0.00000000000E+00 0. -1.
         13   -1    0    0    0    0 -0.00000000000E+00 -0.00000000000E+00 -0.10000000000E+04  0.10000000000E+04  0.00000000000E+00 0.  1.
    9000005    2    1    2  501    0  0.21743807508E+02  0.23998479040E+02 -0.80173228625E+03  0.80240381327E+03  0.53385929351E+01 0.  0.
         13    1    3    3    0    0  0.28529131132E+01  0.99141435114E+00 -0.84716580791E+02  0.84770402126E+02  0.00000000000E+00 0.  1.
          1    1    3    3  501    0  0.18890894395E+02  0.23007064689E+02 -0.71701570546E+03  0.71763341115E+03  0.00000000000E+00 0.  1.
         -1    1    1    2    0  502 -0.21743807508E+02 -0.23998479040E+02 -0.19660735337E+03  0.19925654710E+03  0.00000000000E+00 0. -1.
<mgrwt>
<rscale>  1 0.30000000E+03</rscale>
<asrwt>0</asrwt>
<pdfrwt beam="1">  1       21 0.60376868E-02 0.30000000E+03</pdfrwt>
<pdfrwt beam="2">0</pdfrwt>
<totfact> 0.20845312E+04</totfact>
</mgrwt>
</event>
<event>
 6    1  0.1273846E-001  0.3000000E+03  0.7818608E-02  0.1093470E+00
         21   -1    0    0  501  502  0.00000000000E+00  0.00000000000E+00  0.53358942882E+01  0.53358942882E+01  0.00000000000E+00 0. -1.
         13   -1    0    0    0    0 -0.00000000000E+00 -0.00000000000E+00 -0.10000000000E+04  0.10000000000E+04  0.00000000000E+00 0.  1.
    9000005    2    1    2  501    0  0.11893309965E+02 -0.29467712922E+02 -0.94963208509E+03  0.95022074385E+03  0.10419600718E+02 0.  0.
         13    1    3    3    0    0  0.70708023006E+01 -0.26057017689E+02 -0.83523345991E+03  0.83566972960E+03  0.00000000000E+00 0.  1.
          3    1    3    3  501    0  0.48225076644E+01 -0.34106952331E+01 -0.11439862518E+03  0.11455101425E+03  0.00000000000E+00 0.  1.
         -3    1    1    2    0  502 -0.11893309965E+02  0.29467712922E+02 -0.45032020621E+02  0.55115150440E+02  0.00000000000E+00 0. -1.
<mgrwt>
<rscale>  1 0.30000000E+03</rscale>
<asrwt>0</asrwt>
<pdfrwt beam="1">  1       21 0.19403293E-01 0.30000000E+03</pdfrwt>
<pdfrwt beam="2">0</pdfrwt>
<totfact> 0.25417153E+03</totfact>
</mgrwt>
</event>
<event>
 6    1  0.1273846E-001  0.3000000E+03  0.7818608E-02  0.1093470E+00
         21   -1    0    0  501  502  0.00000000000E+00  0.00000000000E+00  0.15535083754E+01  0.15535083754E+01  0.00000000000E+00 0. -1.
         13   -1    0    0    0    0 -0.00000000000E+00 -0.00000000000E+00 -0.10000000000E+04  0.10000000000E+04  0.00000000000E+00 0.  1.
    9000005    2    1    2  501    0 -0.33378718625E+02  0.12961057611E+02 -0.70488147892E+03  0.70581283726E+03  0.56332970497E+01 0.  0.
         13    1    3    3    0    0 -0.15394479861E+02  0.69055127899E+01 -0.38430708547E+03  0.38467728301E+03  0.00000000000E+00 0.  1.
          1    1    3    3  501    0 -0.17984238765E+02  0.60555448212E+01 -0.32057439345E+03  0.32113555425E+03  0.00000000000E+00 0.  1.
         -1    1    1    2    0  502  0.33378718625E+02 -0.12961057611E+02 -0.29356501270E+03  0.29574067112E+03  0.00000000000E+00 0. -1.
<mgrwt>
<rscale>  1 0.30000000E+03</rscale>
<asrwt>0</asrwt>
<pdfrwt beam="1">  1       21 0.56491333E-02 0.30000000E+03</pdfrwt>
<pdfrwt beam="2">0</pdfrwt>
<totfact> 0.23375676E+04</totfact>
</mgrwt>
</event>
<event>
 6    1  0.1273846E-001  0.3000000E+03  0.7818608E-02  0.1093470E+00
         21   -1    0    0  501  502  0.00000000000E+00  0.00000000000E+00  0.17592068823E+01  0.17592068823E+01  0.00000000000E+00 0. -1.
         13   -1    0    0    0    0 -0.00000000000E+00 -0.00000000000E+00 -0.10000000000E+04  0.10000000000E+04  0.00000000000E+00 0.  1.
    9000005    2    1    2  501    0  0.36524146314E+02  0.43451384307E+01 -0.73904466821E+03  0.73996630274E+03  0.31959489198E+01 0.  0.
         13    1    3    3    0    0  0.32628363395E+02  0.35609958155E+01 -0.63835400284E+03  0.63919724947E+03  0.00000000000E+00 0.  1.
          3    1    3    3  501    0  0.38957829192E+01  0.78414261521E+00 -0.10069066536E+03  0.10076905326E+03  0.00000000000E+00 0.  1.
         -3    1    1    2    0  502 -0.36524146314E+02 -0.43451384307E+01 -0.25919612491E+03  0.26179290415E+03  0.00000000000E+00 0. -1.
<mgrwt>
<rscale>  1 0.30000000E+03</rscale>
<asrwt>0</asrwt>
<pdfrwt beam="1">  1       21 0.63971294E-02 0.30000000E+03</pdfrwt>
<pdfrwt beam="2">0</pdfrwt>
<totfact> 0.18863710E+04</totfact>
</mgrwt>
</event>
<event>
 6    1  0.1273846E-001  0.3000000E+03  0.7818608E-02  0.1093470E+00
         21   -1    0    0  501  502  0.00000000000E+00  0.00000000000E+00  0.22524292254E+01  0.22524292254E+01  0.00000000000E+00 0. -1.
         13   -1    0    0    0    0 -0.00000000000E+00 -0.00000000000E+00 -0.10000000000E+04  0.10000000000E+04  0.00000000000E+00 0.  1.
    9000005    2    1    2  501    0  0.16888456713E+02 -0.25230808524E+02 -0.88384056154E+03  0.88436850148E+03  0.34197236950E+01 0.  0.
         13    1    3    3    0    0  0.10337866078E+02 -0.12406986242E+02 -0.47426654709E+03  0.47454142334E+03  0.00000000000E+00 0.  1.
          1    1    3    3  501    0  0.65505906347E+01 -0.12823822282E+02 -0.40957401445E+03  0.40982707813E+03  0.00000000000E+00 0.  1.
         -3    1    1    2    0  502 -0.16888456713E+02  0.25230808524E+02 -0.11390700923E+03  0.11788392775E+03  0.00000000000E+00 0. -1.
<mgrwt>
<rscale>  1 0.30000000E+03</rscale>
<asrwt>0</asrwt>
<pdfrwt beam="1">  1       21 0.81906690E-02 0.30000000E+03</pdfrwt>
<pdfrwt beam="2">0</pdfrwt>
<totfact> 0.12255823E+04</totfact>
</mgrwt>
</event>
<event>
 6    1  0.1273846E-001  0.3000000E+03  0.7818608E-02  0.1093470E+00
         21   -1    0    0  501  502  0.00000000000E+00  0.00000000000E+00  0.17370050070E+01  0.17370050070E+01  0.00000000000E+00 0. -1.
         13   -1    0    0    0    0 -0.00000000000E+00 -0.00000000000E+00 -0.10000000000E+04  0.10000000000E+04  0.00000000000E+00 0.  1.
    9000005    2    1    2  501    0 -0.29883022714E+02  0.23245408038E+02 -0.70690065377E+03  0.70792523206E+03  0.40318532283E+01 0.  0.
         13    1    3    3    0    0 -0.66893988692E+01  0.74480746849E+01 -0.18656906724E+03  0.18683746606E+03  0.00000000000E+00 0.  1.
          1    1    3    3  501    0 -0.23193623844E+02  0.15797333353E+02 -0.52033158654E+03  0.52108776600E+03  0.00000000000E+00 0.  1.
         -3    1    1    2    0  502  0.29883022714E+02 -0.23245408038E+02 -0.29136234122E+03  0.29381177295E+03  0.00000000000E+00 0. -1.
<mgrwt>
<rscale>  1 0.30000000E+03</rscale>
<asrwt>0</asrwt>
<pdfrwt beam="1">  1       21 0.63163952E-02 0.30000000E+03</pdfrwt>
<pdfrwt beam="2">0</pdfrwt>
<totfact> 0.19282589E+04</totfact>
</mgrwt>
</event>
<event>
 6    1  0.1273846E-001  0.3000000E+03  0.7818608E-02  0.1093470E+00
         21   -1    0    0  501  502  0.00000000000E+00  0.00000000000E+00  0.35586553998E+01  0.35586553998E+01  0.00000000000E+00 0. -1.
         13   -1    0    0    0    0 -0.00000000000E+00 -0.00000000000E+00 -0.10000000000E+04  0.10000000000E+04  0.00000000000E+00 0.  1.
    9000005    2    1    2  501    0  0.13855561733E+02 -0.28187478791E+02 -0.92473455502E+03  0.92527472203E+03  0.35781884797E+01 0.  0.
         13    1    3    3    0    0 -0.38676126866E-01 -0.10731034084E+00 -0.15751602224E+02  0.15752015235E+02  0.00000000000E+00 0.  1.
          3    1    3    3  501    0  0.13894237860E+02 -0.28080168450E+02 -0.90898295280E+03  0.90952270680E+03  0.00000000000E+00 0.  1.
         -1    1    1    2    0  502 -0.13855561733E+02  0.28187478791E+02 -0.71706789579E+02  0.78283933366E+02  0.00000000000E+00 0. -1.
<mgrwt>
<rscale>  1 0.30000000E+03</rscale>
<asrwt>0</asrwt>
<pdfrwt beam="1">  1       21 0.12940592E-01 0.30000000E+03</pdfrwt>
<pdfrwt beam="2">0</pdfrwt>
<totfact> 0.54015082E+03</totfact>
</mgrwt>
</event>
<event>
 6    1  0.1273846E-001  0.3000000E+03  0.7818608E-02  0.1093470E+00
         21   -1    0    0  501  502  0.00000000000E+00  0.00000000000E+00  0.10001181749E+01  0.10001181749E+01  0.00000000000E+00 0. -1.
         13   -1    0    0    0    0 -0.00000000000E+00 -0.00000000000E+00 -0.10000000000E+04  0.10000000000E+04  0.00000000000E+00 0.  1.
    9000005    2    1    2  501    0  0.10022015323E+02  0.29757978661E+02 -0.46002617452E+03  0.46111250464E+03  0.38317886597E+01 0.  0.
         13    1    3    3    0    0  0.31146073164E+01  0.12862226517E+02 -0.17183436829E+03  0.17234322666E+03  0.00000000000E+00 0.  1.
          3    1    3    3  501    0  0.69074080062E+01  0.16895752144E+02 -0.28819180623E+03  0.28876927798E+03  0.00000000000E+00 0.  1.
         -3    1    1    2    0  502 -0.10022015323E+02 -0.29757978661E+02 -0.53897370730E+03  0.53988761353E+03  0.00000000000E+00 0. -1.
<mgrwt>
<rscale>  1 0.30000000E+03</rscale>
<asrwt>0</asrwt>
<pdfrwt beam="1">  1       21 0.36368010E-02 0.30000000E+03</pdfrwt>
<pdfrwt beam="2">0</pdfrwt>
<totfact> 0.49341409E+04</totfact>
</mgrwt>
</event>
<event>
 6    1  0.1273846E-001  0.3000000E+03  0.7818608E-02  0.1093470E+00
         21   -1    0    0  501  502  0.00000000000E+00  0.00000000000E+00  0.18187669352E+01  0.18187669352E+01  0.00000000000E+00 0. -1.
         13   -1    0    0    0    0 -0.00000000000E+00 -0.00000000000E+00 -0.10000000000E+04  0.10000000000E+04  0.00000000000E+00 0.  1.
    9000005    2    1    2  501    0  0.69030474024E+01 -0.39849955496E+02 -0.34295021060E+03  0.34534076745E+03  0.31189247043E+01 0.  0.
         13    1    3    3    0    0  0.22899303845E+01 -0.16374143621E+02 -0.12808812910E+03  0.12915078465E+03  0.00000000000E+00 0.  1.
          1    1    3    3  501    0  0.46131170180E+01 -0.23475811875E+02 -0.21486208151E+03  0.21618998280E+03  0.00000000000E+00 0.  1.
         -3    1    1    2    0  502 -0.69030474024E+01  0.39849955496E+02 -0.65523102246E+03  0.65647799949E+03  0.00000000000E+00 0. -1.
<mgrwt>
<rscale>  1 0.30000000E+03</rscale>
<asrwt>0</asrwt>
<pdfrwt beam="1">  1       21 0.66137119E-02 0.30000000E+03</pdfrwt>
<pdfrwt beam="2">0</pdfrwt>
<totfact> 0.17806952E+04</totfact>
</mgrwt>
</event>
<event>
 6    1  0.1273846E-001  0.3000000E+03  0.7818608E-02  0.1093470E+00
         21   -1    0    0  501  502  0.00000000000E+00  0.00000000000E+00  0.26993019633E+01  0.26993019633E+01  0.00000000000E+00 0. -1.
         13   -1    0    0    0    0 -0.00000000000E+00 -0.00000000000E+00 -0.10000000000E+04  0.10000000000E+04  0.00000000000E+00 0.  1.
    9000005    2    1    2  501    0 -0.46590087195E+02  0.12886089151E+02 -0.68185652233E+03  0.68357281371E+03  0.26052023362E+01 0.  0.
         13    1    3    3    0    0 -0.12189787091E+02  0.26064963759E+01 -0.18827140840E+03  0.18868361867E+03  0.00000000000E+00 0.  1.
          3    1    3    3  501    0 -0.34400300104E+02  0.10279592775E+02 -0.49358511394E+03  0.49488919505E+03  0.00000000000E+00 0.  1.
         -3    1    1    2    0  502  0.46590087195E+02 -0.12886089151E+02 -0.31544417570E+03  0.31912648825E+03  0.00000000000E+00 0. -1.
<mgrwt>
<rscale>  1 0.30000000E+03</rscale>
<asrwt>0</asrwt>
<pdfrwt beam="1">  1       21 0.98156642E-02 0.30000000E+03</pdfrwt>
<pdfrwt beam="2">0</pdfrwt>
<totfact> 0.88938600E+03</totfact>
</mgrwt>
</event>
<event>
 6    1  0.1273846E-001  0.3000000E+03  0.7818608E-02  0.1093470E+00
         21   -1    0    0  501  502  0.00000000000E+00  0.00000000000E+00  0.13563413275E+01  0.13563413275E+01  0.00000000000E+00 0. -1.
         13   -1    0    0    0    0 -0.00000000000E+00 -0.00000000000E+00 -0.10000000000E+04  0.10000000000E+04  0.00000000000E+00 0.  1.
    9000005    2    1    2  501    0 -0.28928818547E+01 -0.32092403753E+02 -0.74062962311E+03  0.74133800795E+03  0.33929724841E+01 0.  0.
         13    1    3    3    0    0  0.65532675178E+00 -0.33905807928E+01 -0.70131510526E+02  0.70216481398E+02  0.00000000000E+00 0.  1.
          3    1    3    3  501    0 -0.35482086065E+01 -0.28701822961E+02 -0.67049811258E+03  0.67112152655E+03  0.00000000000E+00 0.  1.
         -1    1    1    2    0  502  0.28928818547E+01  0.32092403753E+02 -0.25801403557E+03  0.26001833338E+03  0.00000000000E+00 0. -1.
<mgrwt>
<rscale>  1 0.30000000E+03</rscale>
<asrwt>0</asrwt>
<pdfrwt beam="1">  1       21 0.49321607E-02 0.30000000E+03</pdfrwt>
<pdfrwt beam="2">0</pdfrwt>
<totfact> 0.29483098E+04</totfact>
</mgrwt>
</event>
<event>
 6    1  0.1273846E-001  0.3000000E+03  0.7818608E-02  0.1093470E+00
         21   -1    0    0  501  502  0.00000000000E+00  0.00000000000E+00  0.11035933825E+02  0.11035933825E+02  0.00000000000E+00 0. -1.
         13   -1    0    0    0    0 -0.00000000000E+00 -0.00000000000E+00 -0.10000000000E+04  0.10000000000E+04  0.00000000000E+00 0.  1.
    9000005    2    1    2  501    0 -0.77934368159E+02 -0.53026854670E+02 -0.71738218957E+03  0.72356014570E+03  0.40577678339E+01 0.  0.
         13    1    3    3    0    0 -0.46127422817E+02 -0.30519626500E+02 -0.40647251283E+03  0.41021834482E+03  0.00000000000E+00 0.  1.
          3    1    3    3  501    0 -0.31806945342E+02 -0.22507228171E+02 -0.31090967674E+03  0.31334180088E+03  0.00000000000E+00 0.  1.
         -3    1    1    2    0  502  0.77934368159E+02  0.53026854670E+02 -0.27158187660E+03  0.28747578812E+03  0.00000000000E+00 0. -1.
<mgrwt>
<rscale>  1 0.30000000E+03</rscale>
<asrwt>0</asrwt>
<pdfrwt beam="1">  1       21 0.40130753E-01 0.30000000E+03</pdfrwt>
<pdfrwt beam="2">0</pdfrwt>
<totfact> 0.59991579E+02</totfact>
</mgrwt>
</event>
<event>
 6    1  0.1273846E-001  0.3000000E+03  0.7818608E-02  0.1093470E+00
         21   -1    0    0  501  502  0.00000000000E+00  0.00000000000E+00  0.35658068026E+01  0.35658068026E+01  0.00000000000E+00 0. -1.
         13   -1    0    0    0    0 -0.00000000000E+00 -0.00000000000E+00 -0.10000000000E+04  0.10000000000E+04  0.00000000000E+00 0.  1.
    9000005    2    1    2  501    0  0.36765220113E+02  0.24343221045E+02 -0.83640766104E+03  0.83757555162E+03  0.32795437150E+01 0.  0.
         13    1    3    3    0    0  0.12844038265E+02  0.66597976369E+01 -0.27412262747E+03  0.27450416593E+03  0.00000000000E+00 0.  1.
          1    1    3    3  501    0  0.23921181849E+02  0.17683423408E+02 -0.56228503356E+03  0.56307138568E+03  0.00000000000E+00 0.  1.
         -3    1    1    2    0  502 -0.36765220113E+02 -0.24343221045E+02 -0.16002653216E+03  0.16599025518E+03  0.00000000000E+00 0. -1.
<mgrwt>
<rscale>  1 0.30000000E+03</rscale>
<asrwt>0</asrwt>
<pdfrwt beam="1">  1       21 0.12966598E-01 0.30000000E+03</pdfrwt>
<pdfrwt beam="2">0</pdfrwt>
<totfact> 0.53817470E+03</totfact>
</mgrwt>
</event>
<event>
 6    1  0.1273846E-001  0.3000000E+03  0.7818608E-02  0.1093470E+00
         21   -1    0    0  501  502  0.00000000000E+00  0.00000000000E+00  0.23578875800E+01  0.23578875800E+01  0.00000000000E+00 0. -1.
         13   -1    0    0    0    0 -0.00000000000E+00 -0.00000000000E+00 -0.10000000000E+04  0.10000000000E+04  0.00000000000E+00 0.  1.
    9000005    2    1    2  501    0  0.30549269182E+02 -0.14962595299E+02 -0.14280608074E+03  0.14684530546E+03  0.35818897189E+01 0.  0.
         13    1    3    3    0    0  0.22892049968E+02 -0.12577214746E+02 -0.10527384995E+03  0.10846573545E+03  0.00000000000E+00 0.  1.
          3    1    3    3  501    0  0.76572192146E+01 -0.23853805528E+01 -0.37532230786E+02  0.38379570012E+02  0.00000000000E+00 0.  1.
         -1    1    1    2    0  502 -0.30549269182E+02  0.14962595299E+02 -0.85483603168E+03  0.85551258212E+03  0.00000000000E+00 0. -1.
<mgrwt>
<rscale>  1 0.30000000E+03</rscale>
<asrwt>0</asrwt>
<pdfrwt beam="1">  1       21 0.85741547E-02 0.30000000E+03</pdfrwt>
<pdfrwt beam="2">0</pdfrwt>
<totfact> 0.11306686E+04</totfact>
</mgrwt>
</event>
<event>
 6    1  0.1273846E-001  0.3000000E+03  0.7818608E-02  0.1093470E+00
         21   -1    0    0  501  502  0.00000000000E+00  0.00000000000E+00  0.10981044423E+01  0.10981044423E+01  0.00000000000E+00 0. -1.
         13   -1    0    0    0    0 -0.00000000000E+00 -0.00000000000E+00 -0.10000000000E+04  0.10000000000E+04  0.00000000000E+00 0.  1.
    9000005    2    1    2  501    0  0.12297066075E+02 -0.30503746046E+02 -0.52026985471E+03  0.52133740693E+03  0.55021615441E+01 0.  0.
         13    1    3    3    0    0  0.10362956994E+02 -0.19513217828E+02 -0.32686818624E+03  0.32761405300E+03  0.00000000000E+00 0.  1.
          3    1    3    3  501    0  0.19341090815E+01 -0.10990528218E+02 -0.19340166848E+03  0.19372335393E+03  0.00000000000E+00 0.  1.
         -1    1    1    2    0  502 -0.12297066075E+02  0.30503746046E+02 -0.47863204085E+03  0.47976069752E+03  0.00000000000E+00 0. -1.
<mgrwt>
<rscale>  1 0.30000000E+03</rscale>
<asrwt>0</asrwt>
<pdfrwt beam="1">  1       21 0.39931155E-02 0.30000000E+03</pdfrwt>
<pdfrwt beam="2">0</pdfrwt>
<totfact> 0.42169472E+04</totfact>
</mgrwt>
</event>
<event>
 6    1  0.1273846E-001  0.3000000E+03  0.7818608E-02  0.1093470E+00
         21   -1    0    0  501  502  0.00000000000E+00  0.00000000000E+00  0.36283913562E+01  0.36283913562E+01  0.00000000000E+00 0. -1.
         13   -1    0    0    0    0 -0.00000000000E+00 -0.00000000000E+00 -0.10000000000E+04  0.10000000000E+04  0.00000000000E+00 0.  1.
    9000005    2    1    2  501    0  0.31345647291E+01  0.46831520994E+02 -0.18584697782E+03  0.19174589122E+03  0.49366770592E+01 0.  0.
         13    1    3    3    0    0  0.25299716927E+01  0.32830508917E+02 -0.12087505819E+03  0.12527977795E+03  0.00000000000E+00 0.  1.
          1    1    3    3  501    0  0.60459303637E+00  0.14001012077E+02 -0.64971919633E+02  0.66466113267E+02  0.00000000000E+00 0.  1.
         -1    1    1    2    0  502 -0.31345647291E+01 -0.46831520994E+02 -0.81052463082E+03  0.81188250014E+03  0.00000000000E+00 0. -1.
<mgrwt>
<rscale>  1 0.30000000E+03</rscale>
<asrwt>0</asrwt>
<pdfrwt beam="1">  1       21 0.13194178E-01 0.30000000E+03</pdfrwt>
<pdfrwt beam="2">0</pdfrwt>
<totfact> 0.52133656E+03</totfact>
</mgrwt>
</event>
<event>
 6    1  0.1273846E-001  0.3000000E+03  0.7818608E-02  0.1093470E+00
         21   -1    0    0  501  502  0.00000000000E+00  0.00000000000E+00  0.18136488470E+01  0.18136488470E+01  0.00000000000E+00 0. -1.
         13   -1    0    0    0    0 -0.00000000000E+00 -0.00000000000E+00 -0.10000000000E+04  0.10000000000E+04  0.00000000000E+00 0.  1.
    9000005    2    1    2  501    0  0.39461370826E+02 -0.15290575975E+02 -0.45949910459E+03  0.46146658342E+03  0.45802835321E+01 0.  0.
         13    1    3    3    0    0  0.37540932073E+02 -0.13499408556E+02 -0.42544019436E+03  0.42730658150E+03  0.00000000000E+00 0.  1.
          1    1    3    3  501    0  0.19204387532E+01 -0.17911674197E+01 -0.34058910226E+02  0.34160001925E+02  0.00000000000E+00 0.  1.
         -3    1    1    2    0  502 -0.39461370826E+02  0.15290575975E+02 -0.53868724657E+03  0.54034706542E+03  0.00000000000E+00 0. -1.
<mgrwt>
<rscale>  1 0.30000000E+03</rscale>
<asrwt>0</asrwt>
<pdfrwt beam="1">  1       21 0.65951006E-02 0.30000000E+03</pdfrwt>
<pdfrwt beam="2">0</pdfrwt>
<totfact> 0.17894131E+04</totfact>
</mgrwt>
</event>
<event>
 6    1  0.1273846E-001  0.3000000E+03  0.7818608E-02  0.1093470E+00
         21   -1    0    0  501  502  0.00000000000E+00  0.00000000000E+00  0.13442626900E+01  0.13442626900E+01  0.00000000000E+00 0. -1.
         13   -1    0    0    0    0 -0.00000000000E+00 -0.00000000000E+00 -0.10000000000E+04  0.10000000000E+04  0.00000000000E+00 0.  1.
    9000005    2    1    2  501    0 -0.13151527788E+02  0.32294702650E+02 -0.34909352326E+03  0.35084677582E+03  0.33558335700E+01 0.  0.
         13    1    3    3    0    0 -0.73556887038E+01  0.20644081757E+02 -0.23177594082E+03  0.23280973135E+03  0.00000000000E+00 0.  1.
          3    1    3    3  501    0 -0.57958390840E+01  0.11650620893E+02 -0.11731758244E+03  0.11803704447E+03  0.00000000000E+00 0.  1.
         -3    1    1    2    0  502  0.13151527788E+02 -0.32294702650E+02 -0.64956221405E+03  0.65049748687E+03  0.00000000000E+00 0. -1.
<mgrwt>
<rscale>  1 0.30000000E+03</rscale>
<asrwt>0</asrwt>
<pdfrwt beam="1">  1       21 0.48882383E-02 0.30000000E+03</pdfrwt>
<pdfrwt beam="2">0</pdfrwt>
<totfact> 0.29935743E+04</totfact>
</mgrwt>
</event>
<event>
 6    1  0.1273846E-001  0.3000000E+03  0.7818608E-02  0.1093470E+00
         21   -1    0    0  501  502  0.00000000000E+00  0.00000000000E+00  0.29482086864E+01  0.29482086864E+01  0.00000000000E+00 0. -1.
         13   -1    0    0    0    0 -0.00000000000E+00 -0.00000000000E+00 -0.10000000000E+04  0.10000000000E+04  0.00000000000E+00 0.  1.
    9000005    2    1    2  501    0  0.48289294610E+02 -0.17441781112E+02 -0.33731600577E+03  0.34121761514E+03  0.33617605524E+01 0.  0.
         13    1    3    3    0    0  0.60465188233E+01 -0.25047711364E+01 -0.50667343845E+02  0.51088296122E+02  0.00000000000E+00 0.  1.
          1    1    3    3  501    0  0.42242775787E+02 -0.14937009976E+02 -0.28664866192E+03  0.29012931902E+03  0.00000000000E+00 0.  1.
         -1    1    1    2    0  502 -0.48289294610E+02  0.17441781112E+02 -0.65973578555E+03  0.66173059354E+03  0.00000000000E+00 0. -1.
<mgrwt>
<rscale>  1 0.30000000E+03</rscale>
<asrwt>0</asrwt>
<pdfrwt beam="1">  1       21 0.10720781E-01 0.30000000E+03</pdfrwt>
<pdfrwt beam="2">0</pdfrwt>
<totfact> 0.75949913E+03</totfact>
</mgrwt>
</event>
<event>
 6    1  0.1273846E-001  0.3000000E+03  0.7818608E-02  0.1093470E+00
         21   -1    0    0  501  502  0.00000000000E+00  0.00000000000E+00  0.17501923672E+01  0.17501923672E+01  0.00000000000E+00 0. -1.
         13   -1    0    0    0    0 -0.00000000000E+00 -0.00000000000E+00 -0.10000000000E+04  0.10000000000E+04  0.00000000000E+00 0.  1.
    9000005    2    1    2  501    0 -0.71808723108E+01 -0.40320472403E+02 -0.59846026116E+03  0.59986838525E+03  0.31764782445E+01 0.  0.
         13    1    3    3    0    0 -0.27163482125E-01 -0.50100821290E+01 -0.82180606084E+02  0.82333186973E+02  0.00000000000E+00 0.  1.
          3    1    3    3  501    0 -0.71537088287E+01 -0.35310390274E+02 -0.51627965508E+03  0.51753519828E+03  0.00000000000E+00 0.  1.
         -3    1    1    2    0  502  0.71808723108E+01  0.40320472403E+02 -0.39978954647E+03  0.40188180711E+03  0.00000000000E+00 0. -1.
<mgrwt>
<rscale>  1 0.30000000E+03</rscale>
<asrwt>0</asrwt>
<pdfrwt beam="1">  1       21 0.63643493E-02 0.30000000E+03</pdfrwt>
<pdfrwt beam="2">0</pdfrwt>
<totfact> 0.19032071E+04</totfact>
</mgrwt>
</event>
<event>
 6    1  0.1273846E-001  0.3000000E+03  0.7818608E-02  0.1093470E+00
         21   -1    0    0  501  502  0.00000000000E+00  0.00000000000E+00  0.12542209080E+01  0.12542209080E+01  0.00000000000E+00 0. -1.
         13   -1    0    0    0    0 -0.00000000000E+00 -0.00000000000E+00 -0.10000000000E+04  0.10000000000E+04  0.00000000000E+00 0.  1.
    9000005    2    1    2  501    0  0.26477480958E+02 -0.14466136878E+02 -0.76033593141E+03  0.76094279466E+03  0.35891553794E+01 0.  0.
         13    1    3    3    0    0  0.18820441217E+02 -0.10824532617E+02 -0.58333200835E+03  0.58373590902E+03  0.00000000000E+00 0.  1.
          1    1    3    3  501    0  0.76570397410E+01 -0.36416042606E+01 -0.17700392305E+03  0.17720688563E+03  0.00000000000E+00 0.  1.
         -1    1    1    2    0  502 -0.26477480958E+02  0.14466136878E+02 -0.23840984769E+03  0.24031142625E+03  0.00000000000E+00 0. -1.
<mgrwt>
<rscale>  1 0.30000000E+03</rscale>
<asrwt>0</asrwt>
<pdfrwt beam="1">  1       21 0.45608129E-02 0.30000000E+03</pdfrwt>
<pdfrwt beam="2">0</pdfrwt>
<totfact> 0.33681754E+04</totfact>
</mgrwt>
</event>
<event>
 6    1  0.1273846E-001  0.3000000E+03  0.7818608E-02  0.1093470E+00
         21   -1    0    0  501  502  0.00000000000E+00  0.00000000000E+00  0.95804898992E+00  0.95804898992E+00  0.00000000000E+00 0. -1.
         13   -1    0    0    0    0 -0.00000000000E+00 -0.00000000000E+00 -0.10000000000E+04  0.10000000000E+04  0.00000000000E+00 0.  1.
    9000005    2    1    2  501    0 -0.17059977818E+02 -0.25712867820E+02 -0.49398333269E+03  0.49495765140E+03  0.33688716439E+01 0.  0.
         13    1    3    3    0    0 -0.55655714140E+01 -0.10578482159E+02 -0.20867640699E+03  0.20901847455E+03  0.00000000000E+00 0.  1.
          3    1    3    3  501    0 -0.11494406404E+02 -0.15134385660E+02 -0.28530692570E+03  0.28593917685E+03  0.00000000000E+00 0.  1.
         -1    1    1    2    0  502  0.17059977818E+02  0.25712867820E+02 -0.50505861832E+03  0.50600039759E+03  0.00000000000E+00 0. -1.
<mgrwt>
<rscale>  1 0.30000000E+03</rscale>
<asrwt>0</asrwt>
<pdfrwt beam="1">  1       21 0.34838219E-02 0.30000000E+03</pdfrwt>
<pdfrwt beam="2">0</pdfrwt>
<totfact> 0.53026520E+04</totfact>
</mgrwt>
</event>
<event>
 6    1  0.1273846E-001  0.3000000E+03  0.7818608E-02  0.1093470E+00
         21   -1    0    0  501  502  0.00000000000E+00  0.00000000000E+00  0.14793590447E+01  0.14793590447E+01  0.00000000000E+00 0. -1.
         13   -1    0    0    0    0 -0.00000000000E+00 -0.00000000000E+00 -0.10000000000E+04  0.10000000000E+04  0.00000000000E+00 0.  1.
    9000005    2    1    2  501    0 -0.35844976488E+02 -0.13709497150E+02 -0.51619417169E+03  0.51762851880E+03  0.31698480916E+01 0.  0.
         13    1    3    3    0    0 -0.17347360205E+02 -0.55728608574E+01 -0.22822228522E+03  0.22894846397E+03  0.00000000000E+00 0.  1.
          1    1    3    3  501    0 -0.18497616283E+02 -0.81366362923E+01 -0.28797188647E+03  0.28868005483E+03  0.00000000000E+00 0.  1.
         -1    1    1    2    0  502  0.35844976488E+02  0.13709497150E+02 -0.48232646927E+03  0.48385084025E+03  0.00000000000E+00 0. -1.
<mgrwt>
<rscale>  1 0.30000000E+03</rscale>
<asrwt>0</asrwt>
<pdfrwt beam="1">  1       21 0.53794988E-02 0.30000000E+03</pdfrwt>
<pdfrwt beam="2">0</pdfrwt>
<totfact> 0.25420915E+04</totfact>
</mgrwt>
</event>
<event>
 6    1  0.1920876E-001  0.3000000E+03  0.7818608E-02  0.1093470E+00
         21   -1    0    0  501  502  0.00000000000E+00  0.00000000000E+00  0.14882815706E+01  0.14882815706E+01  0.00000000000E+00 0. -1.
         13   -1    0    0    0    0 -0.00000000000E+00 -0.00000000000E+00 -0.10000000000E+04  0.10000000000E+04  0.00000000000E+00 0.  1.
    9000005    2    1    2  501    0  0.34940578473E+02 -0.10139948841E+02 -0.64402020073E+03  0.64513466687E+03  0.10632820314E+02 0.  0.
         13    1    3    3    0    0  0.15792455677E+02 -0.73403765908E+00 -0.33964843043E+03  0.34001617132E+03  0.00000000000E+00 0.  1.
          3    1    3    3  501    0  0.19148122796E+02 -0.94059111815E+01 -0.30437177030E+03  0.30511849555E+03  0.00000000000E+00 0.  1.
         -3    1    1    2    0  502 -0.34940578473E+02  0.10139948841E+02 -0.35449151770E+03  0.35635361470E+03  0.00000000000E+00 0. -1.
<mgrwt>
<rscale>  1 0.30000000E+03</rscale>
<asrwt>0</asrwt>
<pdfrwt beam="1">  1       21 0.54119444E-02 0.30000000E+03</pdfrwt>
<pdfrwt beam="2">0</pdfrwt>
<totfact> 0.25160506E+04</totfact>
</mgrwt>
</event>
<event>
 6    1  0.1273846E-001  0.3000000E+03  0.7818608E-02  0.1093470E+00
         21   -1    0    0  501  502  0.00000000000E+00  0.00000000000E+00  0.11766524051E+01  0.11766524051E+01  0.00000000000E+00 0. -1.
         13   -1    0    0    0    0 -0.00000000000E+00 -0.00000000000E+00 -0.10000000000E+04  0.10000000000E+04  0.00000000000E+00 0.  1.
    9000005    2    1    2  501    0 -0.18628968546E+02  0.26229370239E+02 -0.66930641760E+03  0.67009293869E+03  0.42950568418E+01 0.  0.
         13    1    3    3    0    0 -0.68535415136E+01  0.99928919469E+01 -0.21070984808E+03  0.21105797545E+03  0.00000000000E+00 0.  1.
          1    1    3    3  501    0 -0.11775427033E+02  0.16236478293E+02 -0.45859656951E+03  0.45903496324E+03  0.00000000000E+00 0.  1.
         -1    1    1    2    0  502  0.18628968546E+02 -0.26229370239E+02 -0.32951693000E+03  0.33108371372E+03  0.00000000000E+00 0. -1.
<mgrwt>
<rscale>  1 0.30000000E+03</rscale>
<asrwt>0</asrwt>
<pdfrwt beam="1">  1       21 0.42787450E-02 0.30000000E+03</pdfrwt>
<pdfrwt beam="2">0</pdfrwt>
<totfact> 0.37529893E+04</totfact>
</mgrwt>
</event>
<event>
 6    1  0.1273846E-001  0.3000000E+03  0.7818608E-02  0.1093470E+00
         21   -1    0    0  501  502  0.00000000000E+00  0.00000000000E+00  0.25969918604E+01  0.25969918604E+01  0.00000000000E+00 0. -1.
         13   -1    0    0    0    0 -0.00000000000E+00 -0.00000000000E+00 -0.10000000000E+04  0.10000000000E+04  0.00000000000E+00 0.  1.
    9000005    2    1    2  501    0 -0.48892495833E+02 -0.23541586358E+01 -0.63655819337E+03  0.63844729935E+03  0.35499697409E+01 0.  0.
         13    1    3    3    0    0 -0.41501098803E+02 -0.78527351538E+00 -0.53308279716E+03  0.53469638719E+03  0.00000000000E+00 0.  1.
          1    1    3    3  501    0 -0.73913970295E+01 -0.15688851205E+01 -0.10347539622E+03  0.10375091215E+03  0.00000000000E+00 0.  1.
         -3    1    1    2    0  502  0.48892495833E+02  0.23541586358E+01 -0.36084481477E+03  0.36414969251E+03  0.00000000000E+00 0. -1.
<mgrwt>
<rscale>  1 0.30000000E+03</rscale>
<asrwt>0</asrwt>
<pdfrwt beam="1">  1       21 0.94436267E-02 0.30000000E+03</pdfrwt>
<pdfrwt beam="2">0</pdfrwt>
<totfact> 0.95281765E+03</totfact>
</mgrwt>
</event>
<event>
 6    1  0.1273846E-001  0.3000000E+03  0.7818608E-02  0.1093470E+00
         21   -1    0    0  501  502  0.00000000000E+00  0.00000000000E+00  0.21116451311E+01  0.21116451311E+01  0.00000000000E+00 0. -1.
         13   -1    0    0    0    0 -0.00000000000E+00 -0.00000000000E+00 -0.10000000000E+04  0.10000000000E+04  0.00000000000E+00 0.  1.
    9000005    2    1    2  501    0  0.38330901783E+01 -0.44219956998E+02 -0.62673820529E+03  0.62831687429E+03  0.33495324478E+01 0.  0.
         13    1    3    3    0    0  0.18219103608E+01 -0.30871488104E+02 -0.41767616192E+03  0.41881946513E+03  0.00000000000E+00 0.  1.
          3    1    3    3  501    0  0.20111798175E+01 -0.13348468895E+02 -0.20906204337E+03  0.20949740916E+03  0.00000000000E+00 0.  1.
         -3    1    1    2    0  502 -0.38330901783E+01  0.44219956998E+02 -0.37115014958E+03  0.37379477085E+03  0.00000000000E+00 0. -1.
<mgrwt>
<rscale>  1 0.30000000E+03</rscale>
<asrwt>0</asrwt>
<pdfrwt beam="1">  1       21 0.76787258E-02 0.30000000E+03</pdfrwt>
<pdfrwt beam="2">0</pdfrwt>
<totfact> 0.13726334E+04</totfact>
</mgrwt>
</event>
<event>
 6    1  0.1273846E-001  0.3000000E+03  0.7818608E-02  0.1093470E+00
         21   -1    0    0  501  502  0.00000000000E+00  0.00000000000E+00  0.45242316856E+01  0.45242316856E+01  0.00000000000E+00 0. -1.
         13   -1    0    0    0    0 -0.00000000000E+00 -0.00000000000E+00 -0.10000000000E+04  0.10000000000E+04  0.00000000000E+00 0.  1.
    9000005    2    1    2  501    0 -0.40092593487E+02 -0.49242033402E+02 -0.66280659955E+03  0.66584891556E+03  0.31616514540E+01 0.  0.
         13    1    3    3    0    0 -0.35819988070E+02 -0.43860506773E+02 -0.58017863994E+03  0.58293573389E+03  0.00000000000E+00 0.  1.
          1    1    3    3  501    0 -0.42726054170E+01 -0.53815266293E+01 -0.82627959607E+02  0.82913181670E+02  0.00000000000E+00 0.  1.
         -3    1    1    2    0  502  0.40092593487E+02  0.49242033402E+02 -0.33266916877E+03  0.33867531613E+03  0.00000000000E+00 0. -1.
<mgrwt>
<rscale>  1 0.30000000E+03</rscale>
<asrwt>0</asrwt>
<pdfrwt beam="1">  1       21 0.16451786E-01 0.30000000E+03</pdfrwt>
<pdfrwt beam="2">0</pdfrwt>
<totfact> 0.34677363E+03</totfact>
</mgrwt>
</event>
<event>
 6    1  0.1273846E-001  0.3000000E+03  0.7818608E-02  0.1093470E+00
         21   -1    0    0  501  502  0.00000000000E+00  0.00000000000E+00  0.14449157070E+01  0.14449157070E+01  0.00000000000E+00 0. -1.
         13   -1    0    0    0    0 -0.00000000000E+00 -0.00000000000E+00 -0.10000000000E+04  0.10000000000E+04  0.00000000000E+00 0.  1.
    9000005    2    1    2  501    0  0.22546421496E+02 -0.30106839955E+02 -0.56189789758E+03  0.56317073025E+03  0.41546558869E+01 0.  0.
         13    1    3    3    0    0  0.21486059685E+02 -0.26940522603E+02 -0.51941911128E+03  0.52056090487E+03  0.00000000000E+00 0.  1.
          1    1    3    3  501    0  0.10603618102E+01 -0.31663173520E+01 -0.42478786304E+02  0.42609825377E+02  0.00000000000E+00 0.  1.
         -1    1    1    2    0  502 -0.22546421496E+02  0.30106839955E+02 -0.43665718671E+03  0.43827418546E+03  0.00000000000E+00 0. -1.
<mgrwt>
<rscale>  1 0.30000000E+03</rscale>
<asrwt>0</asrwt>
<pdfrwt beam="1">  1       21 0.52542500E-02 0.30000000E+03</pdfrwt>
<pdfrwt beam="2">0</pdfrwt>
<totfact> 0.26466298E+04</totfact>
</mgrwt>
</event>
<event>
 6    1  0.1273846E-001  0.3000000E+03  0.7818608E-02  0.1093470E+00
         21   -1    0    0  501  502  0.00000000000E+00  0.00000000000E+00  0.15555243013E+01  0.15555243013E+01  0.00000000000E+00 0. -1.
         13   -1    0    0    0    0 -0.00000000000E+00 -0.00000000000E+00 -0.10000000000E+04  0.10000000000E+04  0.00000000000E+00 0.  1.
    9000005    2    1    2  501    0  0.11216297568E+02  0.35383996069E+02 -0.66707695878E+03  0.66811547905E+03  0.29651139587E+01 0.  0.
         13    1    3    3    0    0  0.36145669477E+01  0.14596632543E+02 -0.25054595854E+03  0.25099682093E+03  0.00000000000E+00 0.  1.
          3    1    3    3  501    0  0.76017306199E+01  0.20787363526E+02 -0.41653100024E+03  0.41711865812E+03  0.00000000000E+00 0.  1.
         -1    1    1    2    0  502 -0.11216297568E+02 -0.35383996069E+02 -0.33136751692E+03  0.33344004525E+03  0.00000000000E+00 0. -1.
<mgrwt>
<rscale>  1 0.30000000E+03</rscale>
<asrwt>0</asrwt>
<pdfrwt beam="1">  1       21 0.56564639E-02 0.30000000E+03</pdfrwt>
<pdfrwt beam="2">0</pdfrwt>
<totfact> 0.23323644E+04</totfact>
</mgrwt>
</event>
<event>
 6    1  0.1273846E-001  0.3000000E+03  0.7818608E-02  0.1093470E+00
         21   -1    0    0  501  502  0.00000000000E+00  0.00000000000E+00  0.11383772299E+01  0.11383772299E+01  0.00000000000E+00 0. -1.
         13   -1    0    0    0    0 -0.00000000000E+00 -0.00000000000E+00 -0.10000000000E+04  0.10000000000E+04  0.00000000000E+00 0.  1.
    9000005    2    1    2  501    0 -0.16614896058E+02  0.29143991150E+02 -0.54242389846E+03  0.54346947599E+03  0.31557436957E+01 0.  0.
         13    1    3    3    0    0 -0.14780069736E+00  0.11514971628E+01 -0.25452441467E+02  0.25478904360E+02  0.00000000000E+00 0.  1.
          3    1    3    3  501    0 -0.16467095361E+02  0.27992493987E+02 -0.51697145699E+03  0.51799057163E+03  0.00000000000E+00 0.  1.
         -3    1    1    2    0  502  0.16614896058E+02 -0.29143991150E+02 -0.45643772431E+03  0.45766890124E+03  0.00000000000E+00 0. -1.
<mgrwt>
<rscale>  1 0.30000000E+03</rscale>
<asrwt>0</asrwt>
<pdfrwt beam="1">  1       21 0.41395623E-02 0.30000000E+03</pdfrwt>
<pdfrwt beam="2">0</pdfrwt>
<totfact> 0.39685592E+04</totfact>
</mgrwt>
</event>
<event>
 6    1  0.1273846E-001  0.3000000E+03  0.7818608E-02  0.1093470E+00
         21   -1    0    0  501  502  0.00000000000E+00  0.00000000000E+00  0.10423850217E+01  0.10423850217E+01  0.00000000000E+00 0. -1.
         13   -1    0    0    0    0 -0.00000000000E+00 -0.00000000000E+00 -0.10000000000E+04  0.10000000000E+04  0.00000000000E+00 0.  1.
    9000005    2    1    2  501    0 -0.11063272621E+02 -0.29431054574E+02 -0.39244844287E+03  0.39371878197E+03  0.31805642645E+01 0.  0.
         13    1    3    3    0    0 -0.60796203229E+01 -0.17935949901E+02 -0.25364643393E+03  0.25435245925E+03  0.00000000000E+00 0.  1.
          3    1    3    3  501    0 -0.49836522980E+01 -0.11495104673E+02 -0.13880200894E+03  0.13936632271E+03  0.00000000000E+00 0.  1.
         -1    1    1    2    0  502  0.11063272621E+02  0.29431054574E+02 -0.60650917211E+03  0.60732360305E+03  0.00000000000E+00 0. -1.
<mgrwt>
<rscale>  1 0.30000000E+03</rscale>
<asrwt>0</asrwt>
<pdfrwt beam="1">  1       21 0.37904990E-02 0.30000000E+03</pdfrwt>
<pdfrwt beam="2">0</pdfrwt>
<totfact> 0.46029267E+04</totfact>
</mgrwt>
</event>
<event>
 6    1  0.1273846E-001  0.3000000E+03  0.7818608E-02  0.1093470E+00
         21   -1    0    0  501  502  0.00000000000E+00  0.00000000000E+00  0.19643742951E+01  0.19643742951E+01  0.00000000000E+00 0. -1.
         13   -1    0    0    0    0 -0.00000000000E+00 -0.00000000000E+00 -0.10000000000E+04  0.10000000000E+04  0.00000000000E+00 0.  1.
    9000005    2    1    2  501    0  0.35893010862E+02  0.24434718855E+02 -0.59735265348E+03  0.59893558134E+03  0.28765030161E+01 0.  0.
         13    1    3    3    0    0  0.96813759996E+01  0.79097650973E+01 -0.16210701632E+03  0.16258837032E+03  0.00000000000E+00 0.  1.
          3    1    3    3  501    0  0.26211634863E+02  0.16524953757E+02 -0.43524563716E+03  0.43634721102E+03  0.00000000000E+00 0.  1.
         -1    1    1    2    0  502 -0.35893010862E+02 -0.24434718855E+02 -0.40068297223E+03  0.40302879295E+03  0.00000000000E+00 0. -1.
<mgrwt>
<rscale>  1 0.30000000E+03</rscale>
<asrwt>0</asrwt>
<pdfrwt beam="1">  1       21 0.71431943E-02 0.30000000E+03</pdfrwt>
<pdfrwt beam="2">0</pdfrwt>
<totfact> 0.15576095E+04</totfact>
</mgrwt>
</event>
<event>
 6    1  0.1273846E-001  0.3000000E+03  0.7818608E-02  0.1093470E+00
         21   -1    0    0  501  502  0.00000000000E+00  0.00000000000E+00  0.10871688898E+02  0.10871688898E+02  0.00000000000E+00 0. -1.
         13   -1    0    0    0    0 -0.00000000000E+00 -0.00000000000E+00 -0.10000000000E+04  0.10000000000E+04  0.00000000000E+00 0.  1.
    9000005    2    1    2  501    0 -0.39169319031E+02  0.49299952617E+02 -0.89740342578E+03  0.89961443984E+03  0.29173412070E+01 0.  0.
         13    1    3    3    0    0 -0.83003105418E+01  0.90149932867E+01 -0.16429302463E+03  0.16474939514E+03  0.00000000000E+00 0.  1.
          1    1    3    3  501    0 -0.30869008489E+02  0.40284959330E+02 -0.73311040115E+03  0.73486504469E+03  0.00000000000E+00 0.  1.
         -3    1    1    2    0  502  0.39169319031E+02 -0.49299952617E+02 -0.91724885320E+02  0.11125724906E+03  0.00000000000E+00 0. -1.
<mgrwt>
<rscale>  1 0.30000000E+03</rscale>
<asrwt>0</asrwt>
<pdfrwt beam="1">  1       21 0.39533498E-01 0.30000000E+03</pdfrwt>
<pdfrwt beam="2">0</pdfrwt>
<totfact> 0.61897863E+02</totfact>
</mgrwt>
</event>
<event>
 6    1  0.1273846E-001  0.3000000E+03  0.7818608E-02  0.1093470E+00
         21   -1    0    0  501  502  0.00000000000E+00  0.00000000000E+00  0.11999739647E+01  0.11999739647E+01  0.00000000000E+00 0. -1.
         13   -1    0    0    0    0 -0.00000000000E+00 -0.00000000000E+00 -0.10000000000E+04  0.10000000000E+04  0.00000000000E+00 0.  1.
    9000005    2    1    2  501    0  0.31928918003E+02 -0.63018854688E+01 -0.66849429088E+03  0.66929479437E+03  0.34256775028E+01 0.  0.
         13    1    3    3    0    0  0.17883208631E+02 -0.21101845690E+01 -0.38847149548E+03  0.38888862779E+03  0.00000000000E+00 0.  1.
          3    1    3    3  501    0  0.14045709372E+02 -0.41917008998E+01 -0.28002279540E+03  0.28040616657E+03  0.00000000000E+00 0.  1.
         -1    1    1    2    0  502 -0.31928918003E+02  0.63018854688E+01 -0.33030573516E+03  0.33190517960E+03  0.00000000000E+00 0. -1.
<mgrwt>
<rscale>  1 0.30000000E+03</rscale>
<asrwt>0</asrwt>
<pdfrwt beam="1">  1       21 0.43635509E-02 0.30000000E+03</pdfrwt>
<pdfrwt beam="2">0</pdfrwt>
<totfact> 0.36304229E+04</totfact>
</mgrwt>
</event>
<event>
 6    1  0.1273846E-001  0.3000000E+03  0.7818608E-02  0.1093470E+00
         21   -1    0    0  501  502  0.00000000000E+00  0.00000000000E+00  0.27301899172E+01  0.27301899172E+01  0.00000000000E+00 0. -1.
         13   -1    0    0    0    0 -0.00000000000E+00 -0.00000000000E+00 -0.10000000000E+04  0.10000000000E+04  0.00000000000E+00 0.  1.
    9000005    2    1    2  501    0 -0.75270157449E+01  0.31395970855E+02 -0.89267368748E+03  0.89326461626E+03  0.36054675173E+01 0.  0.
         13    1    3    3    0    0 -0.65536116117E+01  0.27555736034E+02 -0.81175641449E+03  0.81225042006E+03  0.00000000000E+00 0.  1.
          3    1    3    3  501    0 -0.97340413323E+00  0.38402348217E+01 -0.80917272982E+02  0.81014196200E+02  0.00000000000E+00 0.  1.
         -3    1    1    2    0  502  0.75270157449E+01 -0.31395970855E+02 -0.10459612261E+03  0.10946557366E+03  0.00000000000E+00 0. -1.
<mgrwt>
<rscale>  1 0.30000000E+03</rscale>
<asrwt>0</asrwt>
<pdfrwt beam="1">  1       21 0.99279843E-02 0.30000000E+03</pdfrwt>
<pdfrwt beam="2">0</pdfrwt>
<totfact> 0.87150010E+03</totfact>
</mgrwt>
</event>
<event>
 6    1  0.1273846E-001  0.3000000E+03  0.7818608E-02  0.1093470E+00
         21   -1    0    0  501  502  0.00000000000E+00  0.00000000000E+00  0.29300914947E+01  0.29300914947E+01  0.00000000000E+00 0. -1.
         13   -1    0    0    0    0 -0.00000000000E+00 -0.00000000000E+00 -0.10000000000E+04  0.10000000000E+04  0.00000000000E+00 0.  1.
    9000005    2    1    2  501    0 -0.31222011854E+02 -0.36850791594E+02 -0.72449459368E+03  0.72610867412E+03  0.29318074747E+01 0.  0.
         13    1    3    3    0    0 -0.27933438323E+02 -0.33990513144E+02 -0.66654560717E+03  0.66799601676E+03  0.00000000000E+00 0.  1.
          3    1    3    3  501    0 -0.32885735310E+01 -0.28602784497E+01 -0.57948986503E+02  0.58112657360E+02  0.00000000000E+00 0.  1.
         -1    1    1    2    0  502  0.31222011854E+02  0.36850791594E+02 -0.27257531483E+03  0.27682141738E+03  0.00000000000E+00 0. -1.
<mgrwt>
<rscale>  1 0.30000000E+03</rscale>
<asrwt>0</asrwt>
<pdfrwt beam="1">  1       21 0.10654901E-01 0.30000000E+03</pdfrwt>
<pdfrwt beam="2">0</pdfrwt>
<totfact> 0.76794900E+03</totfact>
</mgrwt>
</event>
<event>
 6    1  0.1273846E-001  0.3000000E+03  0.7818608E-02  0.1093470E+00
         21   -1    0    0  501  502  0.00000000000E+00  0.00000000000E+00  0.18316011424E+01  0.18316011424E+01  0.00000000000E+00 0. -1.
         13   -1    0    0    0    0 -0.00000000000E+00 -0.00000000000E+00 -0.10000000000E+04  0.10000000000E+04  0.00000000000E+00 0.  1.
    9000005    2    1    2  501    0  0.21685469470E+02 -0.27769998659E+02 -0.78225759854E+03  0.78306481640E+03  0.47035946175E+01 0.  0.
         13    1    3    3    0    0  0.50040163373E+01 -0.99439071904E+01 -0.24708733776E+03  0.24733797515E+03  0.00000000000E+00 0.  1.
          3    1    3    3  501    0  0.16681453132E+02 -0.17826091469E+02 -0.53517026078E+03  0.53572684125E+03  0.00000000000E+00 0.  1.
         -3    1    1    2    0  502 -0.21685469470E+02  0.27769998659E+02 -0.21591080032E+03  0.21876678474E+03  0.00000000000E+00 0. -1.
<mgrwt>
<rscale>  1 0.30000000E+03</rscale>
<asrwt>0</asrwt>
<pdfrwt beam="1">  1       21 0.66603818E-02 0.30000000E+03</pdfrwt>
<pdfrwt beam="2">0</pdfrwt>
<totfact> 0.17591196E+04</totfact>
</mgrwt>
</event>
<event>
 6    1  0.1273846E-001  0.3000000E+03  0.7818608E-02  0.1093470E+00
         21   -1    0    0  501  502  0.00000000000E+00  0.00000000000E+00  0.16785131291E+01  0.16785131291E+01  0.00000000000E+00 0. -1.
         13   -1    0    0    0    0 -0.00000000000E+00 -0.00000000000E+00 -0.10000000000E+04  0.10000000000E+04  0.00000000000E+00 0.  1.
    9000005    2    1    2  501    0 -0.23408428493E+02 -0.32346267184E+02 -0.60897075469E+03  0.61028583540E+03  0.30307267089E+01 0.  0.
         13    1    3    3    0    0 -0.11821398122E+02 -0.14774107438E+02 -0.26997289291E+03  0.27063514667E+03  0.00000000000E+00 0.  1.
          1    1    3    3  501    0 -0.11587030371E+02 -0.17572159746E+02 -0.33899786177E+03  0.33965068874E+03  0.00000000000E+00 0.  1.
         -3    1    1    2    0  502  0.23408428493E+02  0.32346267184E+02 -0.38935073218E+03  0.39139267773E+03  0.00000000000E+00 0. -1.
<mgrwt>
<rscale>  1 0.30000000E+03</rscale>
<asrwt>0</asrwt>
<pdfrwt beam="1">  1       21 0.61036970E-02 0.30000000E+03</pdfrwt>
<pdfrwt beam="2">0</pdfrwt>
<totfact> 0.20457855E+04</totfact>
</mgrwt>
</event>
<event>
 6    1  0.1273846E-001  0.3000000E+03  0.7818608E-02  0.1093470E+00
         21   -1    0    0  501  502  0.00000000000E+00  0.00000000000E+00  0.22383400560E+01  0.22383400560E+01  0.00000000000E+00 0. -1.
         13   -1    0    0    0    0 -0.00000000000E+00 -0.00000000000E+00 -0.10000000000E+04  0.10000000000E+04  0.00000000000E+00 0.  1.
    9000005    2    1    2  501    0  0.45983838602E+02 -0.15178764059E+01 -0.61368723395E+03  0.61541799149E+03  0.32350852027E+01 0.  0.
         13    1    3    3    0    0  0.34978901883E+01 -0.81539623180E+00 -0.41466453336E+02  0.41621711390E+02  0.00000000000E+00 0.  1.
          1    1    3    3  501    0  0.42485948414E+02 -0.70248017408E+00 -0.57222078062E+03  0.57379628010E+03  0.00000000000E+00 0.  1.
         -1    1    1    2    0  502 -0.45983838602E+02  0.15178764059E+01 -0.38407442599E+03  0.38682034856E+03  0.00000000000E+00 0. -1.
<mgrwt>
<rscale>  1 0.30000000E+03</rscale>
<asrwt>0</asrwt>
<pdfrwt beam="1">  1       21 0.81394355E-02 0.30000000E+03</pdfrwt>
<pdfrwt beam="2">0</pdfrwt>
<totfact> 0.12391812E+04</totfact>
</mgrwt>
</event>
<event>
 6    1  0.1273846E-001  0.3000000E+03  0.7818608E-02  0.1093470E+00
         21   -1    0    0  501  502  0.00000000000E+00  0.00000000000E+00  0.20023638429E+01  0.20023638429E+01  0.00000000000E+00 0. -1.
         13   -1    0    0    0    0 -0.00000000000E+00 -0.00000000000E+00 -0.10000000000E+04  0.10000000000E+04  0.00000000000E+00 0.  1.
    9000005    2    1    2  501    0  0.41218870641E+02 -0.14788815620E+02 -0.40174831072E+03  0.40414706158E+03  0.39291029318E+01 0.  0.
         13    1    3    3    0    0  0.92509703259E+01 -0.48244752040E+01 -0.10382041400E+03  0.10434334850E+03  0.00000000000E+00 0.  1.
          1    1    3    3  501    0  0.31967900315E+02 -0.99643404162E+01 -0.29792789672E+03  0.29980371308E+03  0.00000000000E+00 0.  1.
         -1    1    1    2    0  502 -0.41218870641E+02  0.14788815620E+02 -0.59624932543E+03  0.59785530226E+03  0.00000000000E+00 0. -1.
<mgrwt>
<rscale>  1 0.30000000E+03</rscale>
<asrwt>0</asrwt>
<pdfrwt beam="1">  1       21 0.72813384E-02 0.30000000E+03</pdfrwt>
<pdfrwt beam="2">0</pdfrwt>
<totfact> 0.15064127E+04</totfact>
</mgrwt>
</event>
<event>
 6    1  0.1273846E-001  0.3000000E+03  0.7818608E-02  0.1093470E+00
         21   -1    0    0  501  502  0.00000000000E+00  0.00000000000E+00  0.11449951885E+01  0.11449951885E+01  0.00000000000E+00 0. -1.
         13   -1    0    0    0    0 -0.00000000000E+00 -0.00000000000E+00 -0.10000000000E+04  0.10000000000E+04  0.00000000000E+00 0.  1.
    9000005    2    1    2  501    0 -0.27486064459E+02 -0.13699639005E+02 -0.70768923880E+03  0.70836407514E+03  0.35270929773E+01 0.  0.
         13    1    3    3    0    0 -0.20426378335E+02 -0.10735783090E+02 -0.56242791716E+03  0.56290110674E+03  0.00000000000E+00 0.  1.
          3    1    3    3  501    0 -0.70596861243E+01 -0.29638559146E+01 -0.14526132164E+03  0.14546296840E+03  0.00000000000E+00 0.  1.
         -3    1    1    2    0  502  0.27486064459E+02  0.13699639005E+02 -0.29116576601E+03  0.29278092005E+03  0.00000000000E+00 0. -1.
<mgrwt>
<rscale>  1 0.30000000E+03</rscale>
<asrwt>0</asrwt>
<pdfrwt beam="1">  1       21 0.41636276E-02 0.30000000E+03</pdfrwt>
<pdfrwt beam="2">0</pdfrwt>
<totfact> 0.39299295E+04</totfact>
</mgrwt>
</event>
<event>
 6    1  0.1273846E-001  0.3000000E+03  0.7818608E-02  0.1093470E+00
         21   -1    0    0  501  502  0.00000000000E+00  0.00000000000E+00  0.45455986210E+01  0.45455986210E+01  0.00000000000E+00 0. -1.
         13   -1    0    0    0    0 -0.00000000000E+00 -0.00000000000E+00 -0.10000000000E+04  0.10000000000E+04  0.00000000000E+00 0.  1.
    9000005    2    1    2  501    0  0.45336307986E+02 -0.37525217091E+02 -0.25510186756E+03  0.26185764459E+03  0.53796333468E+01 0.  0.
         13    1    3    3    0    0  0.32786977011E+02 -0.29811771050E+02 -0.19613338051E+03  0.20107717549E+03  0.00000000000E+00 0.  1.
          3    1    3    3  501    0  0.12549330975E+02 -0.77134460407E+01 -0.58968487057E+02  0.60780469096E+02  0.00000000000E+00 0.  1.
         -3    1    1    2    0  502 -0.45336307986E+02  0.37525217091E+02 -0.74035253382E+03  0.74268795403E+03  0.00000000000E+00 0. -1.
<mgrwt>
<rscale>  1 0.30000000E+03</rscale>
<asrwt>0</asrwt>
<pdfrwt beam="1">  1       21 0.16529484E-01 0.30000000E+03</pdfrwt>
<pdfrwt beam="2">0</pdfrwt>
<totfact> 0.34373465E+03</totfact>
</mgrwt>
</event>
<event>
 6    1  0.1273846E-001  0.3000000E+03  0.7818608E-02  0.1093470E+00
         21   -1    0    0  501  502  0.00000000000E+00  0.00000000000E+00  0.10100436301E+02  0.10100436301E+02  0.00000000000E+00 0. -1.
         13   -1    0    0    0    0 -0.00000000000E+00 -0.00000000000E+00 -0.10000000000E+04  0.10000000000E+04  0.00000000000E+00 0.  1.
    9000005    2    1    2  501    0 -0.29736466299E+01 -0.56914811387E+02 -0.91090413160E+03  0.91269193245E+03  0.34768187104E+01 0.  0.
         13    1    3    3    0    0 -0.54719792100E+00 -0.32645512586E+02 -0.50092301345E+03  0.50198595032E+03  0.00000000000E+00 0.  1.
          1    1    3    3  501    0 -0.24264487089E+01 -0.24269298801E+02 -0.40998111815E+03  0.41070598213E+03  0.00000000000E+00 0.  1.
         -1    1    1    2    0  502  0.29736466299E+01  0.56914811387E+02 -0.78995432102E+02  0.97408503851E+02  0.00000000000E+00 0. -1.
<mgrwt>
<rscale>  1 0.30000000E+03</rscale>
<asrwt>0</asrwt>
<pdfrwt beam="1">  1       21 0.36728937E-01 0.30000000E+03</pdfrwt>
<pdfrwt beam="2">0</pdfrwt>
<totfact> 0.72083521E+02</totfact>
</mgrwt>
</event>
<event>
 6    1  0.1273846E-001  0.3000000E+03  0.7818608E-02  0.1093470E+00
         21   -1    0    0  501  502  0.00000000000E+00  0.00000000000E+00  0.14595288626E+01  0.14595288626E+01  0.00000000000E+00 0. -1.
         13   -1    0    0    0    0 -0.00000000000E+00 -0.00000000000E+00 -0.10000000000E+04  0.10000000000E+04  0.00000000000E+00 0.  1.
    9000005    2    1    2  501    0 -0.35447223170E+02 -0.25253315953E+01 -0.68172854028E+03  0.68266071697E+03  0.29948175932E+01 0.  0.
         13    1    3    3    0    0 -0.93640138641E+01 -0.42220118776E+00 -0.15604382690E+03  0.15632510651E+03  0.00000000000E+00 0.  1.
          3    1    3    3  501    0 -0.26083209305E+02 -0.21031304076E+01 -0.52568471338E+03  0.52633561047E+03  0.00000000000E+00 0.  1.
         -1    1    1    2    0  502  0.35447223170E+02  0.25253315953E+01 -0.31681193085E+03  0.31879881189E+03  0.00000000000E+00 0. -1.
<mgrwt>
<rscale>  1 0.30000000E+03</rscale>
<asrwt>0</asrwt>
<pdfrwt beam="1">  1       21 0.53073889E-02 0.30000000E+03</pdfrwt>
<pdfrwt beam="2">0</pdfrwt>
<totfact> 0.26014801E+04</totfact>
</mgrwt>
</event>
<event>
 6    1  0.1273846E-001  0.3000000E+03  0.7818608E-02  0.1093470E+00
         21   -1    0    0  501  502  0.00000000000E+00  0.00000000000E+00  0.18908208352E+01  0.18908208352E+01  0.00000000000E+00 0. -1.
         13   -1    0    0    0    0 -0.00000000000E+00 -0.00000000000E+00 -0.10000000000E+04  0.10000000000E+04  0.00000000000E+00 0.  1.
    9000005    2    1    2  501    0  0.13785637989E+02 -0.36992314222E+02 -0.69836284117E+03  0.69955600268E+03  0.10462687783E+02 0.  0.
         13    1    3    3    0    0  0.85010274147E+01 -0.33015896000E+02 -0.56239882261E+03  0.56343123141E+03  0.00000000000E+00 0.  1.
          3    1    3    3  501    0  0.52846105746E+01 -0.39764182215E+01 -0.13596401855E+03  0.13612477126E+03  0.00000000000E+00 0.  1.
         -1    1    1    2    0  502 -0.13785637989E+02  0.36992314222E+02 -0.29974633800E+03  0.30233481816E+03  0.00000000000E+00 0. -1.
<mgrwt>
<rscale>  1 0.30000000E+03</rscale>
<asrwt>0</asrwt>
<pdfrwt beam="1">  1       21 0.68757266E-02 0.30000000E+03</pdfrwt>
<pdfrwt beam="2">0</pdfrwt>
<totfact> 0.16645848E+04</totfact>
</mgrwt>
</event>
<event>
 6    1  0.1273846E-001  0.3000000E+03  0.7818608E-02  0.1093470E+00
         21   -1    0    0  501  502  0.00000000000E+00  0.00000000000E+00  0.22749919203E+02  0.22749919203E+02  0.00000000000E+00 0. -1.
         13   -1    0    0    0    0 -0.00000000000E+00 -0.00000000000E+00 -0.10000000000E+04  0.10000000000E+04  0.00000000000E+00 0.  1.
    9000005    2    1    2  501    0 -0.54976418965E+02 -0.13102273085E+02 -0.96273635647E+03  0.96439990296E+03  0.34357754144E+01 0.  0.
         13    1    3    3    0    0 -0.28186882398E+02 -0.59144652079E+01 -0.51645105929E+03  0.51725349480E+03  0.00000000000E+00 0.  1.
          3    1    3    3  501    0 -0.26789536567E+02 -0.71878078772E+01 -0.44628529718E+03  0.44714640816E+03  0.00000000000E+00 0.  1.
         -3    1    1    2    0  502  0.54976418965E+02  0.13102273085E+02 -0.14513724328E+02  0.58350016248E+02  0.00000000000E+00 0. -1.
<mgrwt>
<rscale>  1 0.30000000E+03</rscale>
<asrwt>0</asrwt>
<pdfrwt beam="1">  1       21 0.82727153E-01 0.30000000E+03</pdfrwt>
<pdfrwt beam="2">0</pdfrwt>
<totfact> 0.11866900E+02</totfact>
</mgrwt>
</event>
<event>
 6    1  0.1273846E-001  0.3000000E+03  0.7818608E-02  0.1093470E+00
         21   -1    0    0  501  502  0.00000000000E+00  0.00000000000E+00  0.13122234027E+01  0.13122234027E+01  0.00000000000E+00 0. -1.
         13   -1    0    0    0    0 -0.00000000000E+00 -0.00000000000E+00 -0.10000000000E+04  0.10000000000E+04  0.00000000000E+00 0.  1.
    9000005    2    1    2  501    0  0.35552672966E+02  0.33182182154E+01 -0.44741156732E+03  0.44888081405E+03  0.64708207396E+01 0.  0.
         13    1    3    3    0    0  0.34659446233E+02  0.20305816438E+01 -0.42918556162E+03  0.43058755994E+03  0.00000000000E+00 0.  1.
          1    1    3    3  501    0  0.89322673223E+00  0.12876365716E+01 -0.18226005700E+02  0.18293254104E+02  0.00000000000E+00 0.  1.
         -3    1    1    2    0  502 -0.35552672966E+02 -0.33182182154E+01 -0.55127620928E+03  0.55243140935E+03  0.00000000000E+00 0. -1.
<mgrwt>
<rscale>  1 0.30000000E+03</rscale>
<asrwt>0</asrwt>
<pdfrwt beam="1">  1       21 0.47717315E-02 0.30000000E+03</pdfrwt>
<pdfrwt beam="2">0</pdfrwt>
<totfact> 0.31190424E+04</totfact>
</mgrwt>
</event>
<event>
 6    1  0.1273846E-001  0.3000000E+03  0.7818608E-02  0.1093470E+00
         21   -1    0    0  501  502  0.00000000000E+00  0.00000000000E+00  0.40946161147E+01  0.40946161147E+01  0.00000000000E+00 0. -1.
         13   -1    0    0    0    0 -0.00000000000E+00 -0.00000000000E+00 -0.10000000000E+04  0.10000000000E+04  0.00000000000E+00 0.  1.
    9000005    2    1    2  501    0 -0.37698352675E+02 -0.49705537724E+02 -0.60837727033E+03  0.61157729794E+03  0.34759201837E+01 0.  0.
         13    1    3    3    0    0 -0.13448415262E+02 -0.19923302807E+02 -0.24457320927E+03  0.24575160744E+03  0.00000000000E+00 0.  1.
          1    1    3    3  501    0 -0.24249937413E+02 -0.29782234917E+02 -0.36380406106E+03  0.36582569050E+03  0.00000000000E+00 0.  1.
         -1    1    1    2    0  502  0.37698352675E+02  0.49705537724E+02 -0.38752811355E+03  0.39251731818E+03  0.00000000000E+00 0. -1.
<mgrwt>
<rscale>  1 0.30000000E+03</rscale>
<asrwt>0</asrwt>
<pdfrwt beam="1">  1       21 0.14889545E-01 0.30000000E+03</pdfrwt>
<pdfrwt beam="2">0</pdfrwt>
<totfact> 0.41747320E+03</totfact>
</mgrwt>
</event>
<event>
 6    1  0.1273846E-001  0.3000000E+03  0.7818608E-02  0.1093470E+00
         21   -1    0    0  501  502  0.00000000000E+00  0.00000000000E+00  0.14857294067E+01  0.14857294067E+01  0.00000000000E+00 0. -1.
         13   -1    0    0    0    0 -0.00000000000E+00 -0.00000000000E+00 -0.10000000000E+04  0.10000000000E+04  0.00000000000E+00 0.  1.
    9000005    2    1    2  501    0  0.36481598151E+02  0.82514266600E+01 -0.57819087657E+03  0.57950143040E+03  0.10873133880E+02 0.  0.
         13    1    3    3    0    0  0.30023882206E+02  0.24879244919E+01 -0.42526157641E+03  0.42632737613E+03  0.00000000000E+00 0.  1.
          3    1    3    3  501    0  0.64577159450E+01  0.57635021681E+01 -0.15292930016E+03  0.15317405427E+03  0.00000000000E+00 0.  1.
         -1    1    1    2    0  502 -0.36481598151E+02 -0.82514266600E+01 -0.42032339402E+03  0.42198429901E+03  0.00000000000E+00 0. -1.
<mgrwt>
<rscale>  1 0.30000000E+03</rscale>
<asrwt>0</asrwt>
<pdfrwt beam="1">  1       21 0.54026638E-02 0.30000000E+03</pdfrwt>
<pdfrwt beam="2">0</pdfrwt>
<totfact> 0.25234570E+04</totfact>
</mgrwt>
</event>
<event>
 6    1  0.1273846E-001  0.3000000E+03  0.7818608E-02  0.1093470E+00
         21   -1    0    0  501  502  0.00000000000E+00  0.00000000000E+00  0.14319673720E+01  0.14319673720E+01  0.00000000000E+00 0. -1.
         13   -1    0    0    0    0 -0.00000000000E+00 -0.00000000000E+00 -0.10000000000E+04  0.10000000000E+04  0.00000000000E+00 0.  1.
    9000005    2    1    2  501    0  0.30400833507E+02  0.13122170749E+02 -0.74069204639E+03  0.74143883992E+03  0.32316738953E+01 0.  0.
         13    1    3    3    0    0  0.25767323860E+02  0.12247612225E+02 -0.64508552102E+03  0.64571610512E+03  0.00000000000E+00 0.  1.
          3    1    3    3  501    0  0.46335096473E+01  0.87455852367E+00 -0.95606525373E+02  0.95722734803E+02  0.00000000000E+00 0.  1.
         -3    1    1    2    0  502 -0.30400833507E+02 -0.13122170749E+02 -0.25787598624E+03  0.25999312745E+03  0.00000000000E+00 0. -1.
<mgrwt>
<rscale>  1 0.30000000E+03</rscale>
<asrwt>0</asrwt>
<pdfrwt beam="1">  1       21 0.52071651E-02 0.30000000E+03</pdfrwt>
<pdfrwt beam="2">0</pdfrwt>
<totfact> 0.26876585E+04</totfact>
</mgrwt>
</event>
<event>
 6    1  0.1273846E-001  0.3000000E+03  0.7818608E-02  0.1093470E+00
         21   -1    0    0  501  502  0.00000000000E+00  0.00000000000E+00  0.18408036525E+01  0.18408036525E+01  0.00000000000E+00 0. -1.
         13   -1    0    0    0    0 -0.00000000000E+00 -0.00000000000E+00 -0.10000000000E+04  0.10000000000E+04  0.00000000000E+00 0.  1.
    9000005    2    1    2  501    0 -0.83273141760E+00 -0.32828562566E+02 -0.82071403536E+03  0.82138251729E+03  0.43936201813E+01 0.  0.
         13    1    3    3    0    0  0.51535581225E+00 -0.23894585457E+01 -0.40432011927E+02  0.40505835286E+02  0.00000000000E+00 0.  1.
          3    1    3    3  501    0 -0.13480872299E+01 -0.30439104020E+02 -0.78028202344E+03  0.78087668200E+03  0.00000000000E+00 0.  1.
         -3    1    1    2    0  502  0.83273141760E+00  0.32828562566E+02 -0.17744516098E+03  0.18045828637E+03  0.00000000000E+00 0. -1.
<mgrwt>
<rscale>  1 0.30000000E+03</rscale>
<asrwt>0</asrwt>
<pdfrwt beam="1">  1       21 0.66938456E-02 0.30000000E+03</pdfrwt>
<pdfrwt beam="2">0</pdfrwt>
<totfact> 0.17438958E+04</totfact>
</mgrwt>
</event>
<event>
 6    1  0.1273846E-001  0.3000000E+03  0.7818608E-02  0.1093470E+00
         21   -1    0    0  501  502  0.00000000000E+00  0.00000000000E+00  0.18956946675E+01  0.18956946675E+01  0.00000000000E+00 0. -1.
         13   -1    0    0    0    0 -0.00000000000E+00 -0.00000000000E+00 -0.10000000000E+04  0.10000000000E+04  0.00000000000E+00 0.  1.
    9000005    2    1    2  501    0  0.27229053169E+02 -0.25619377953E+02 -0.75496464086E+03  0.75589839732E+03  0.36061415675E+01 0.  0.
         13    1    3    3    0    0  0.25314528324E+02 -0.24118538209E+02 -0.68543322090E+03  0.68632443461E+03  0.00000000000E+00 0.  1.
          3    1    3    3  501    0  0.19145248442E+01 -0.15008397432E+01 -0.69531419967E+02  0.69573962716E+02  0.00000000000E+00 0.  1.
         -1    1    1    2    0  502 -0.27229053169E+02  0.25619377953E+02 -0.24313966447E+03  0.24599729735E+03  0.00000000000E+00 0. -1.
<mgrwt>
<rscale>  1 0.30000000E+03</rscale>
<asrwt>0</asrwt>
<pdfrwt beam="1">  1       21 0.68934497E-02 0.30000000E+03</pdfrwt>
<pdfrwt beam="2">0</pdfrwt>
<totfact> 0.16571535E+04</totfact>
</mgrwt>
</event>
<event>
 6    1  0.1273846E-001  0.3000000E+03  0.7818608E-02  0.1093470E+00
         21   -1    0    0  501  502  0.00000000000E+00  0.00000000000E+00  0.13882276493E+01  0.13882276493E+01  0.00000000000E+00 0. -1.
         13   -1    0    0    0    0 -0.00000000000E+00 -0.00000000000E+00 -0.10000000000E+04  0.10000000000E+04  0.00000000000E+00 0.  1.
    9000005    2    1    2  501    0 -0.58001006621E+01  0.29981404105E+02 -0.78536046293E+03  0.78596156558E+03  0.34641129912E+01 0.  0.
         13    1    3    3    0    0 -0.28148775815E+01  0.22138842938E+02 -0.58446891480E+03  0.58489483180E+03  0.00000000000E+00 0.  1.
          1    1    3    3  501    0 -0.29852230805E+01  0.78425611670E+01 -0.20089154813E+03  0.20106673378E+03  0.00000000000E+00 0.  1.
         -3    1    1    2    0  502  0.58001006621E+01 -0.29981404105E+02 -0.21325130942E+03  0.21542666207E+03  0.00000000000E+00 0. -1.
<mgrwt>
<rscale>  1 0.30000000E+03</rscale>
<asrwt>0</asrwt>
<pdfrwt beam="1">  1       21 0.50481112E-02 0.30000000E+03</pdfrwt>
<pdfrwt beam="2">0</pdfrwt>
<totfact> 0.28338130E+04</totfact>
</mgrwt>
</event>
<event>
 6    1  0.1273846E-001  0.3000000E+03  0.7818608E-02  0.1093470E+00
         21   -1    0    0  501  502  0.00000000000E+00  0.00000000000E+00  0.18480672670E+01  0.18480672670E+01  0.00000000000E+00 0. -1.
         13   -1    0    0    0    0 -0.00000000000E+00 -0.00000000000E+00 -0.10000000000E+04  0.10000000000E+04  0.00000000000E+00 0.  1.
    9000005    2    1    2  501    0 -0.11244055533E+02 -0.36002354525E+02 -0.73849296978E+03  0.73946404459E+03  0.35508457663E+01 0.  0.
         13    1    3    3    0    0 -0.10210332558E+02 -0.28664601389E+02 -0.57900390052E+03  0.57980292089E+03  0.00000000000E+00 0.  1.
          1    1    3    3  501    0 -0.10337229743E+01 -0.73377531357E+01 -0.15948906926E+03  0.15966112369E+03  0.00000000000E+00 0.  1.
         -1    1    1    2    0  502  0.11244055533E+02  0.36002354525E+02 -0.25965896295E+03  0.26238402268E+03  0.00000000000E+00 0. -1.
<mgrwt>
<rscale>  1 0.30000000E+03</rscale>
<asrwt>0</asrwt>
<pdfrwt beam="1">  1       21 0.67202588E-02 0.30000000E+03</pdfrwt>
<pdfrwt beam="2">0</pdfrwt>
<totfact> 0.17320222E+04</totfact>
</mgrwt>
</event>
<event>
 6    1  0.1273846E-001  0.3000000E+03  0.7818608E-02  0.1093470E+00
         21   -1    0    0  501  502  0.00000000000E+00  0.00000000000E+00  0.42671835432E+01  0.42671835432E+01  0.00000000000E+00 0. -1.
         13   -1    0    0    0    0 -0.00000000000E+00 -0.00000000000E+00 -0.10000000000E+04  0.10000000000E+04  0.00000000000E+00 0.  1.
    9000005    2    1    2  501    0 -0.13433973566E+02 -0.39016683475E+02 -0.88701474820E+03  0.88798136497E+03  0.36010803543E+01 0.  0.
         13    1    3    3    0    0 -0.10538456395E+02 -0.25598992274E+02 -0.58301025572E+03  0.58366713609E+03  0.00000000000E+00 0.  1.
          3    1    3    3  501    0 -0.28955171718E+01 -0.13417691201E+02 -0.30400449247E+03  0.30431422888E+03  0.00000000000E+00 0.  1.
         -3    1    1    2    0  502  0.13433973566E+02  0.39016683475E+02 -0.10871806826E+03  0.11628581857E+03  0.00000000000E+00 0. -1.
<mgrwt>
<rscale>  1 0.30000000E+03</rscale>
<asrwt>0</asrwt>
<pdfrwt beam="1">  1       21 0.15517064E-01 0.30000000E+03</pdfrwt>
<pdfrwt beam="2">0</pdfrwt>
<totfact> 0.38671470E+03</totfact>
</mgrwt>
</event>
<event>
 6    1  0.1273846E-001  0.3000000E+03  0.7818608E-02  0.1093470E+00
         21   -1    0    0  501  502  0.00000000000E+00  0.00000000000E+00  0.25333084321E+01  0.25333084321E+01  0.00000000000E+00 0. -1.
         13   -1    0    0    0    0 -0.00000000000E+00 -0.00000000000E+00 -0.10000000000E+04  0.10000000000E+04  0.00000000000E+00 0.  1.
    9000005    2    1    2  501    0 -0.30548888428E+02 -0.32120161245E+02 -0.73571599471E+03  0.73705568857E+03  0.28502345940E+01 0.  0.
         13    1    3    3    0    0 -0.25415068375E+02 -0.28122238665E+02 -0.63257589928E+03  0.63371054461E+03  0.00000000000E+00 0.  1.
          3    1    3    3  501    0 -0.51338200526E+01 -0.39979225801E+01 -0.10314009543E+03  0.10334514396E+03  0.00000000000E+00 0.  1.
         -1    1    1    2    0  502  0.30548888428E+02  0.32120161245E+02 -0.26175069686E+03  0.26547761986E+03  0.00000000000E+00 0. -1.
<mgrwt>
<rscale>  1 0.30000000E+03</rscale>
<asrwt>0</asrwt>
<pdfrwt beam="1">  1       21 0.92120501E-02 0.30000000E+03</pdfrwt>
<pdfrwt beam="2">0</pdfrwt>
<totfact> 0.99581719E+03</totfact>
</mgrwt>
</event>
<event>
 6    1  0.1273846E-001  0.3000000E+03  0.7818608E-02  0.1093470E+00
         21   -1    0    0  501  502  0.00000000000E+00  0.00000000000E+00  0.37172996899E+01  0.37172996899E+01  0.00000000000E+00 0. -1.
         13   -1    0    0    0    0 -0.00000000000E+00 -0.00000000000E+00 -0.10000000000E+04  0.10000000000E+04  0.00000000000E+00 0.  1.
    9000005    2    1    2  501    0  0.11202333111E+02  0.51272878635E+02 -0.75323348313E+03  0.75506629461E+03  0.31668299269E+01 0.  0.
         13    1    3    3    0    0  0.65806709929E+01  0.31440773017E+02 -0.43890580855E+03  0.44007969303E+03  0.00000000000E+00 0.  1.
          3    1    3    3  501    0  0.46216621177E+01  0.19832105618E+02 -0.31432767457E+03  0.31498660158E+03  0.00000000000E+00 0.  1.
         -3    1    1    2    0  502 -0.11202333111E+02 -0.51272878635E+02 -0.24304921718E+03  0.24865100507E+03  0.00000000000E+00 0. -1.
<mgrwt>
<rscale>  1 0.30000000E+03</rscale>
<asrwt>0</asrwt>
<pdfrwt beam="1">  1       21 0.13517482E-01 0.30000000E+03</pdfrwt>
<pdfrwt beam="2">0</pdfrwt>
<totfact> 0.49874657E+03</totfact>
</mgrwt>
</event>
<event>
 6    1  0.1273846E-001  0.3000000E+03  0.7818608E-02  0.1093470E+00
         21   -1    0    0  501  502  0.00000000000E+00  0.00000000000E+00  0.40984970550E+01  0.40984970550E+01  0.00000000000E+00 0. -1.
         13   -1    0    0    0    0 -0.00000000000E+00 -0.00000000000E+00 -0.10000000000E+04  0.10000000000E+04  0.00000000000E+00 0.  1.
    9000005    2    1    2  501    0 -0.48146763887E+02 -0.20115552784E+02 -0.78705375889E+03  0.78883092743E+03  0.88241909778E+01 0.  0.
         13    1    3    3    0    0 -0.22397114717E+02 -0.52823280041E+01 -0.37721033931E+03  0.37791159525E+03  0.00000000000E+00 0.  1.
          3    1    3    3  501    0 -0.25749649169E+02 -0.14833224780E+02 -0.40984341958E+03  0.41091933218E+03  0.00000000000E+00 0.  1.
         -1    1    1    2    0  502  0.48146763887E+02  0.20115552784E+02 -0.20884774406E+03  0.21526756963E+03  0.00000000000E+00 0. -1.
<mgrwt>
<rscale>  1 0.30000000E+03</rscale>
<asrwt>0</asrwt>
<pdfrwt beam="1">  1       21 0.14903657E-01 0.30000000E+03</pdfrwt>
<pdfrwt beam="2">0</pdfrwt>
<totfact> 0.41674242E+03</totfact>
</mgrwt>
</event>
<event>
 6    1  0.1273846E-001  0.3000000E+03  0.7818608E-02  0.1093470E+00
         21   -1    0    0  501  502  0.00000000000E+00  0.00000000000E+00  0.39631124240E+01  0.39631124240E+01  0.00000000000E+00 0. -1.
         13   -1    0    0    0    0 -0.00000000000E+00 -0.00000000000E+00 -0.10000000000E+04  0.10000000000E+04  0.00000000000E+00 0.  1.
    9000005    2    1    2  501    0  0.30512195851E+02 -0.32871085732E+02 -0.85003385978E+03  0.85122678243E+03  0.42391024888E+01 0.  0.
         13    1    3    3    0    0  0.18726192451E+02 -0.18970158602E+02 -0.46809065674E+03  0.46884901635E+03  0.00000000000E+00 0.  1.
          3    1    3    3  501    0  0.11786003400E+02 -0.13900927130E+02 -0.38194320303E+03  0.38237776608E+03  0.00000000000E+00 0.  1.
         -3    1    1    2    0  502 -0.30512195851E+02  0.32871085732E+02 -0.14600302780E+03  0.15273632999E+03  0.00000000000E+00 0. -1.
<mgrwt>
<rscale>  1 0.30000000E+03</rscale>
<asrwt>0</asrwt>
<pdfrwt beam="1">  1       21 0.14411348E-01 0.30000000E+03</pdfrwt>
<pdfrwt beam="2">0</pdfrwt>
<totfact> 0.44340164E+03</totfact>
</mgrwt>
</event>
<event>
 6    1  0.1273846E-001  0.3000000E+03  0.7818608E-02  0.1093470E+00
         21   -1    0    0  501  502  0.00000000000E+00  0.00000000000E+00  0.11952692560E+01  0.11952692560E+01  0.00000000000E+00 0. -1.
         13   -1    0    0    0    0 -0.00000000000E+00 -0.00000000000E+00 -0.10000000000E+04  0.10000000000E+04  0.00000000000E+00 0.  1.
    9000005    2    1    2  501    0 -0.33874318706E+02 -0.26409745081E+01 -0.41894743129E+03  0.42034336735E+03  0.41415068564E+01 0.  0.
         13    1    3    3    0    0 -0.17268820652E+02  0.34791481425E+00 -0.19720838414E+03  0.19796332991E+03  0.00000000000E+00 0.  1.
          1    1    3    3  501    0 -0.16605498055E+02 -0.29888893224E+01 -0.22173904714E+03  0.22238003744E+03  0.00000000000E+00 0.  1.
         -1    1    1    2    0  502  0.33874318706E+02  0.26409745081E+01 -0.57985729946E+03  0.58085190191E+03  0.00000000000E+00 0. -1.
<mgrwt>
<rscale>  1 0.30000000E+03</rscale>
<asrwt>0</asrwt>
<pdfrwt beam="1">  1       21 0.43464428E-02 0.30000000E+03</pdfrwt>
<pdfrwt beam="2">0</pdfrwt>
<totfact> 0.36546441E+04</totfact>
</mgrwt>
</event>
<event>
 6    1  0.1273846E-001  0.3000000E+03  0.7818608E-02  0.1093470E+00
         21   -1    0    0  501  502  0.00000000000E+00  0.00000000000E+00  0.24319059460E+01  0.24319059460E+01  0.00000000000E+00 0. -1.
         13   -1    0    0    0    0 -0.00000000000E+00 -0.00000000000E+00 -0.10000000000E+04  0.10000000000E+04  0.00000000000E+00 0.  1.
    9000005    2    1    2  501    0  0.30436272404E+02  0.14907891131E+02 -0.86266272740E+03  0.86333456647E+03  0.33136882837E+01 0.  0.
         13    1    3    3    0    0  0.80263843226E+01  0.38524900583E+01 -0.19156891033E+03  0.19177568128E+03  0.00000000000E+00 0.  1.
          3    1    3    3  501    0  0.22409888081E+02  0.11055401073E+02 -0.67109381707E+03  0.67155888519E+03  0.00000000000E+00 0.  1.
         -1    1    1    2    0  502 -0.30436272404E+02 -0.14907891131E+02 -0.13490536666E+03  0.13909733947E+03  0.00000000000E+00 0. -1.
<mgrwt>
<rscale>  1 0.30000000E+03</rscale>
<asrwt>0</asrwt>
<pdfrwt beam="1">  1       21 0.88433130E-02 0.30000000E+03</pdfrwt>
<pdfrwt beam="2">0</pdfrwt>
<totfact> 0.10705826E+04</totfact>
</mgrwt>
</event>
<event>
 6    1  0.1273846E-001  0.3000000E+03  0.7818608E-02  0.1093470E+00
         21   -1    0    0  501  502  0.00000000000E+00  0.00000000000E+00  0.30910407289E+01  0.30910407289E+01  0.00000000000E+00 0. -1.
         13   -1    0    0    0    0 -0.00000000000E+00 -0.00000000000E+00 -0.10000000000E+04  0.10000000000E+04  0.00000000000E+00 0.  1.
    9000005    2    1    2  501    0 -0.49747431391E+02 -0.90848455678E+00 -0.72173660889E+03  0.72345653877E+03  0.31620556592E+01 0.  0.
         13    1    3    3    0    0 -0.30201755900E+01 -0.11580714686E+00 -0.56106218396E+02  0.56187566370E+02  0.00000000000E+00 0.  1.
          1    1    3    3  501    0 -0.46727255801E+02 -0.79267740992E+00 -0.66563039050E+03  0.66726897240E+03  0.00000000000E+00 0.  1.
         -1    1    1    2    0  502  0.49747431391E+02  0.90848455678E+00 -0.27517235038E+03  0.27963450196E+03  0.00000000000E+00 0. -1.
<mgrwt>
<rscale>  1 0.30000000E+03</rscale>
<asrwt>0</asrwt>
<pdfrwt beam="1">  1       21 0.11240172E-01 0.30000000E+03</pdfrwt>
<pdfrwt beam="2">0</pdfrwt>
<totfact> 0.69753627E+03</totfact>
</mgrwt>
</event>
<event>
 6    1  0.1273846E-001  0.3000000E+03  0.7818608E-02  0.1093470E+00
         21   -1    0    0  501  502  0.00000000000E+00  0.00000000000E+00  0.14968371500E+01  0.14968371500E+01  0.00000000000E+00 0. -1.
         13   -1    0    0    0    0 -0.00000000000E+00 -0.00000000000E+00 -0.10000000000E+04  0.10000000000E+04  0.00000000000E+00 0.  1.
    9000005    2    1    2  501    0 -0.96103588603E+01  0.30718058433E+02 -0.77620678836E+03  0.77688242038E+03  0.36549530412E+01 0.  0.
         13    1    3    3    0    0 -0.39127265888E+01  0.13563605515E+02 -0.38379729156E+03  0.38405682110E+03  0.00000000000E+00 0.  1.
          3    1    3    3  501    0 -0.56976322715E+01  0.17154452918E+02 -0.39240949680E+03  0.39282559928E+03  0.00000000000E+00 0.  1.
         -3    1    1    2    0  502  0.96103588603E+01 -0.30718058433E+02 -0.22229637449E+03  0.22461441677E+03  0.00000000000E+00 0. -1.
<mgrwt>
<rscale>  1 0.30000000E+03</rscale>
<asrwt>0</asrwt>
<pdfrwt beam="1">  1       21 0.54430557E-02 0.30000000E+03</pdfrwt>
<pdfrwt beam="2">0</pdfrwt>
<totfact> 0.24914653E+04</totfact>
</mgrwt>
</event>
<event>
 6    1  0.1273846E-001  0.3000000E+03  0.7818608E-02  0.1093470E+00
         21   -1    0    0  501  502  0.00000000000E+00  0.00000000000E+00  0.22853921502E+01  0.22853921502E+01  0.00000000000E+00 0. -1.
         13   -1    0    0    0    0 -0.00000000000E+00 -0.00000000000E+00 -0.10000000000E+04  0.10000000000E+04  0.00000000000E+00 0.  1.
    9000005    2    1    2  501    0 -0.34420461027E+02 -0.23320590808E+02 -0.74557711417E+03  0.74674296160E+03  0.33465550210E+01 0.  0.
         13    1    3    3    0    0 -0.27165532603E+02 -0.17185458878E+02 -0.55738123192E+03  0.55830739191E+03  0.00000000000E+00 0.  1.
          1    1    3    3  501    0 -0.72549284240E+01 -0.61351319296E+01 -0.18819588225E+03  0.18843556969E+03  0.00000000000E+00 0.  1.
         -1    1    1    2    0  502  0.34420461027E+02  0.23320590808E+02 -0.25213749368E+03  0.25554243055E+03  0.00000000000E+00 0. -1.
<mgrwt>
<rscale>  1 0.30000000E+03</rscale>
<asrwt>0</asrwt>
<pdfrwt beam="1">  1       21 0.83105344E-02 0.30000000E+03</pdfrwt>
<pdfrwt beam="2">0</pdfrwt>
<totfact> 0.11946458E+04</totfact>
</mgrwt>
</event>
<event>
 6    1  0.1273846E-001  0.3000000E+03  0.7818608E-02  0.1093470E+00
         21   -1    0    0  501  502  0.00000000000E+00  0.00000000000E+00  0.23576529758E+01  0.23576529758E+01  0.00000000000E+00 0. -1.
         13   -1    0    0    0    0 -0.00000000000E+00 -0.00000000000E+00 -0.10000000000E+04  0.10000000000E+04  0.00000000000E+00 0.  1.
    9000005    2    1    2  501    0  0.24428303853E+02  0.23672941309E+02 -0.85623147119E+03  0.85691286626E+03  0.31902855023E+01 0.  0.
         13    1    3    3    0    0  0.90868100620E+01  0.83176362627E+01 -0.27353007130E+03  0.27380732842E+03  0.00000000000E+00 0.  1.
          1    1    3    3  501    0  0.15341493791E+02  0.15355305047E+02 -0.58270139989E+03  0.58310553784E+03  0.00000000000E+00 0.  1.
         -1    1    1    2    0  502 -0.24428303853E+02 -0.23672941309E+02 -0.14141087583E+03  0.14544478671E+03  0.00000000000E+00 0. -1.
<mgrwt>
<rscale>  1 0.30000000E+03</rscale>
<asrwt>0</asrwt>
<pdfrwt beam="1">  1       21 0.85733016E-02 0.30000000E+03</pdfrwt>
<pdfrwt beam="2">0</pdfrwt>
<totfact> 0.11308672E+04</totfact>
</mgrwt>
</event>
<event>
 6    1  0.1273846E-001  0.3000000E+03  0.7818608E-02  0.1093470E+00
         21   -1    0    0  501  502  0.00000000000E+00  0.00000000000E+00  0.11623449671E+02  0.11623449671E+02  0.00000000000E+00 0. -1.
         13   -1    0    0    0    0 -0.00000000000E+00 -0.00000000000E+00 -0.10000000000E+04  0.10000000000E+04  0.00000000000E+00 0.  1.
    9000005    2    1    2  501    0  0.88248674396E+01  0.77169788273E+02 -0.84491355004E+03  0.84848336582E+03  0.34728266204E+01 0.  0.
         13    1    3    3    0    0  0.27524087029E-01  0.15680056540E+01 -0.22911274021E+02  0.22964883552E+02  0.00000000000E+00 0.  1.
          1    1    3    3  501    0  0.87973433526E+01  0.75601782619E+02 -0.82200227601E+03  0.82551848226E+03  0.00000000000E+00 0.  1.
         -3    1    1    2    0  502 -0.88248674396E+01 -0.77169788273E+02 -0.14346300029E+03  0.16314008386E+03  0.00000000000E+00 0. -1.
<mgrwt>
<rscale>  1 0.30000000E+03</rscale>
<asrwt>0</asrwt>
<pdfrwt beam="1">  1       21 0.42267179E-01 0.30000000E+03</pdfrwt>
<pdfrwt beam="2">0</pdfrwt>
<totfact> 0.53799454E+02</totfact>
</mgrwt>
</event>
<event>
 6    1  0.1273846E-001  0.3000000E+03  0.7818608E-02  0.1093470E+00
         21   -1    0    0  501  502  0.00000000000E+00  0.00000000000E+00  0.18625866496E+01  0.18625866496E+01  0.00000000000E+00 0. -1.
         13   -1    0    0    0    0 -0.00000000000E+00 -0.00000000000E+00 -0.10000000000E+04  0.10000000000E+04  0.00000000000E+00 0.  1.
    9000005    2    1    2  501    0  0.10232227043E+02 -0.34802082488E+02 -0.76945337296E+03  0.77031934286E+03  0.41849023396E+01 0.  0.
         13    1    3    3    0    0  0.79846419654E+01 -0.31538266844E+02 -0.67773514793E+03  0.67851554700E+03  0.00000000000E+00 0.  1.
          3    1    3    3  501    0  0.22475850774E+01 -0.32638156444E+01 -0.91718225033E+02  0.91803795861E+02  0.00000000000E+00 0.  1.
         -1    1    1    2    0  502 -0.10232227043E+02  0.34802082488E+02 -0.22868404039E+03  0.23154324379E+03  0.00000000000E+00 0. -1.
<mgrwt>
<rscale>  1 0.30000000E+03</rscale>
<asrwt>0</asrwt>
<pdfrwt beam="1">  1       21 0.67730566E-02 0.30000000E+03</pdfrwt>
<pdfrwt beam="2">0</pdfrwt>
<totfact> 0.17086571E+04</totfact>
</mgrwt>
</event>
<event>
 6    1  0.1273846E-001  0.3000000E+03  0.7818608E-02  0.1093470E+00
         21   -1    0    0  501  502  0.00000000000E+00  0.00000000000E+00  0.11489923220E+01  0.11489923220E+01  0.00000000000E+00 0. -1.
         13   -1    0    0    0    0 -0.00000000000E+00 -0.00000000000E+00 -0.10000000000E+04  0.10000000000E+04  0.00000000000E+00 0.  1.
    9000005    2    1    2  501    0  0.31605686163E+02 -0.56609190267E+01 -0.34805522013E+03  0.34956160563E+03  0.44625632539E+01 0.  0.
         13    1    3    3    0    0  0.28031638627E+01  0.21993490799E+00 -0.43560500716E+02  0.43651154872E+02  0.00000000000E+00 0.  1.
          3    1    3    3  501    0  0.28802522301E+02 -0.58808539347E+01 -0.30449471941E+03  0.30591045076E+03  0.00000000000E+00 0.  1.
         -3    1    1    2    0  502 -0.31605686163E+02  0.56609190267E+01 -0.65079578755E+03  0.65158738669E+03  0.00000000000E+00 0. -1.
<mgrwt>
<rscale>  1 0.30000000E+03</rscale>
<asrwt>0</asrwt>
<pdfrwt beam="1">  1       21 0.41781627E-02 0.30000000E+03</pdfrwt>
<pdfrwt beam="2">0</pdfrwt>
<totfact> 0.39068807E+04</totfact>
</mgrwt>
</event>
<event>
 6    1  0.1273846E-001  0.3000000E+03  0.7818608E-02  0.1093470E+00
         21   -1    0    0  501  502  0.00000000000E+00  0.00000000000E+00  0.14483424249E+01  0.14483424249E+01  0.00000000000E+00 0. -1.
         13   -1    0    0    0    0 -0.00000000000E+00 -0.00000000000E+00 -0.10000000000E+04  0.10000000000E+04  0.00000000000E+00 0.  1.
    9000005    2    1    2  501    0 -0.24452497236E+02  0.26576566740E+02 -0.65501916869E+03  0.65602279410E+03  0.33994848941E+01 0.  0.
         13    1    3    3    0    0 -0.65462453233E+01  0.94247303794E+01 -0.21130317228E+03  0.21161453043E+03  0.00000000000E+00 0.  1.
          3    1    3    3  501    0 -0.17906251913E+02  0.17151836361E+02 -0.44371599641E+03  0.44440826367E+03  0.00000000000E+00 0.  1.
         -3    1    1    2    0  502  0.24452497236E+02 -0.26576566740E+02 -0.34353248888E+03  0.34542554833E+03  0.00000000000E+00 0. -1.
<mgrwt>
<rscale>  1 0.30000000E+03</rscale>
<asrwt>0</asrwt>
<pdfrwt beam="1">  1       21 0.52667108E-02 0.30000000E+03</pdfrwt>
<pdfrwt beam="2">0</pdfrwt>
<totfact> 0.26359341E+04</totfact>
</mgrwt>
</event>
<event>
 6    1  0.1273846E-001  0.3000000E+03  0.7818608E-02  0.1093470E+00
         21   -1    0    0  501  502  0.00000000000E+00  0.00000000000E+00  0.12579371267E+01  0.12579371267E+01  0.00000000000E+00 0. -1.
         13   -1    0    0    0    0 -0.00000000000E+00 -0.00000000000E+00 -0.10000000000E+04  0.10000000000E+04  0.00000000000E+00 0.  1.
    9000005    2    1    2  501    0 -0.33070490306E+02  0.17474268947E+01 -0.67653946819E+03  0.67735791729E+03  0.33742060290E+01 0.  0.
         13    1    3    3    0    0 -0.12355379080E+02 -0.79921111303E+00 -0.23690253573E+03  0.23722585350E+03  0.00000000000E+00 0.  1.
          1    1    3    3  501    0 -0.20715111226E+02  0.25466380077E+01 -0.43963693246E+03  0.44013206380E+03  0.00000000000E+00 0.  1.
         -3    1    1    2    0  502  0.33070490306E+02 -0.17474268947E+01 -0.32220259468E+03  0.32390001983E+03  0.00000000000E+00 0. -1.
<mgrwt>
<rscale>  1 0.30000000E+03</rscale>
<asrwt>0</asrwt>
<pdfrwt beam="1">  1       21 0.45743265E-02 0.30000000E+03</pdfrwt>
<pdfrwt beam="2">0</pdfrwt>
<totfact> 0.33512914E+04</totfact>
</mgrwt>
</event>
<event>
 6    1  0.1273846E-001  0.3000000E+03  0.7818608E-02  0.1093470E+00
         21   -1    0    0  501  502  0.00000000000E+00  0.00000000000E+00  0.20330884630E+01  0.20330884630E+01  0.00000000000E+00 0. -1.
         13   -1    0    0    0    0 -0.00000000000E+00 -0.00000000000E+00 -0.10000000000E+04  0.10000000000E+04  0.00000000000E+00 0.  1.
    9000005    2    1    2  501    0 -0.25837604761E+02  0.23806050486E+02 -0.81260485556E+03  0.81337095221E+03  0.33681983458E+01 0.  0.
         13    1    3    3    0    0 -0.35355000385E+01  0.39511718223E+01 -0.14990448900E+03  0.14999822446E+03  0.00000000000E+00 0.  1.
          3    1    3    3  501    0 -0.22302104722E+02  0.19854878663E+02 -0.66270036656E+03  0.66337272775E+03  0.00000000000E+00 0.  1.
         -3    1    1    2    0  502  0.25837604761E+02 -0.23806050486E+02 -0.18536205598E+03  0.18866213625E+03  0.00000000000E+00 0. -1.
<mgrwt>
<rscale>  1 0.30000000E+03</rscale>
<asrwt>0</asrwt>
<pdfrwt beam="1">  1       21 0.73930645E-02 0.30000000E+03</pdfrwt>
<pdfrwt beam="2">0</pdfrwt>
<totfact> 0.14668524E+04</totfact>
</mgrwt>
</event>
<event>
 6    1  0.1273846E-001  0.3000000E+03  0.7818608E-02  0.1093470E+00
         21   -1    0    0  501  502  0.00000000000E+00  0.00000000000E+00  0.27023376753E+01  0.27023376753E+01  0.00000000000E+00 0. -1.
         13   -1    0    0    0    0 -0.00000000000E+00 -0.00000000000E+00 -0.10000000000E+04  0.10000000000E+04  0.00000000000E+00 0.  1.
    9000005    2    1    2  501    0 -0.38452992821E+02  0.10856039190E+02 -0.17922234209E+03  0.18365184118E+03  0.32961520337E+01 0.  0.
         13    1    3    3    0    0 -0.15948786474E+02  0.32121985675E+01 -0.77632584467E+02  0.79318977430E+02  0.00000000000E+00 0.  1.
          3    1    3    3  501    0 -0.22504206347E+02  0.76438406225E+01 -0.10158975763E+03  0.10433286375E+03  0.00000000000E+00 0.  1.
         -1    1    1    2    0  502  0.38452992821E+02 -0.10856039190E+02 -0.81807532023E+03  0.81905049650E+03  0.00000000000E+00 0. -1.
<mgrwt>
<rscale>  1 0.30000000E+03</rscale>
<asrwt>0</asrwt>
<pdfrwt beam="1">  1       21 0.98267032E-02 0.30000000E+03</pdfrwt>
<pdfrwt beam="2">0</pdfrwt>
<totfact> 0.88760340E+03</totfact>
</mgrwt>
</event>
<event>
 6    1  0.1273846E-001  0.3000000E+03  0.7818608E-02  0.1093470E+00
         21   -1    0    0  501  502  0.00000000000E+00  0.00000000000E+00  0.11336781458E+01  0.11336781458E+01  0.00000000000E+00 0. -1.
         13   -1    0    0    0    0 -0.00000000000E+00 -0.00000000000E+00 -0.10000000000E+04  0.10000000000E+04  0.00000000000E+00 0.  1.
    9000005    2    1    2  501    0  0.20790437905E+02 -0.23492249977E+02 -0.67940871876E+03  0.68013945967E+03  0.30576726449E+01 0.  0.
         13    1    3    3    0    0  0.77422234475E+01 -0.79494193927E+01 -0.27039882585E+03  0.27062642205E+03  0.00000000000E+00 0.  1.
          3    1    3    3  501    0  0.13048214458E+02 -0.15542830584E+02 -0.40900989291E+03  0.40951303762E+03  0.00000000000E+00 0.  1.
         -1    1    1    2    0  502 -0.20790437905E+02  0.23492249977E+02 -0.31945760309E+03  0.32099421847E+03  0.00000000000E+00 0. -1.
<mgrwt>
<rscale>  1 0.30000000E+03</rscale>
<asrwt>0</asrwt>
<pdfrwt beam="1">  1       21 0.41224747E-02 0.30000000E+03</pdfrwt>
<pdfrwt beam="2">0</pdfrwt>
<totfact> 0.39963487E+04</totfact>
</mgrwt>
</event>
<event>
 6    1  0.1273846E-001  0.3000000E+03  0.7818608E-02  0.1093470E+00
         21   -1    0    0  501  502  0.00000000000E+00  0.00000000000E+00  0.41660309578E+01  0.41660309578E+01  0.00000000000E+00 0. -1.
         13   -1    0    0    0    0 -0.00000000000E+00 -0.00000000000E+00 -0.10000000000E+04  0.10000000000E+04  0.00000000000E+00 0.  1.
    9000005    2    1    2  501    0 -0.39539254294E+02  0.17966270384E+02 -0.86919863460E+03  0.87029053869E+03  0.36353589786E+01 0.  0.
         13    1    3    3    0    0 -0.32620303831E+02  0.14905528096E+02 -0.68825318631E+03  0.68918699020E+03  0.00000000000E+00 0.  1.
          3    1    3    3  501    0 -0.69189504628E+01  0.30607422875E+01 -0.18094544829E+03  0.18110354849E+03  0.00000000000E+00 0.  1.
         -1    1    1    2    0  502  0.39539254294E+02 -0.17966270384E+02 -0.12663533444E+03  0.13387549227E+03  0.00000000000E+00 0. -1.
<mgrwt>
<rscale>  1 0.30000000E+03</rscale>
<asrwt>0</asrwt>
<pdfrwt beam="1">  1       21 0.15149235E-01 0.30000000E+03</pdfrwt>
<pdfrwt beam="2">0</pdfrwt>
<totfact> 0.40432217E+03</totfact>
</mgrwt>
</event>
<event>
 6    1  0.1273846E-001  0.3000000E+03  0.7818608E-02  0.1093470E+00
         21   -1    0    0  501  502  0.00000000000E+00  0.00000000000E+00  0.15621740959E+01  0.15621740959E+01  0.00000000000E+00 0. -1.
         13   -1    0    0    0    0 -0.00000000000E+00 -0.00000000000E+00 -0.10000000000E+04  0.10000000000E+04  0.00000000000E+00 0.  1.
    9000005    2    1    2  501    0 -0.29873435320E+00  0.37683259675E+02 -0.64761168901E+03  0.64871788034E+03  0.37244113355E+01 0.  0.
         13    1    3    3    0    0  0.16382850326E+01  0.17047415041E+02 -0.30227650412E+03  0.30276126450E+03  0.00000000000E+00 0.  1.
          3    1    3    3  501    0 -0.19370193858E+01  0.20635844633E+02 -0.34533518489E+03  0.34595661585E+03  0.00000000000E+00 0.  1.
         -1    1    1    2    0  502  0.29873435320E+00 -0.37683259675E+02 -0.35082613690E+03  0.35284429375E+03  0.00000000000E+00 0. -1.
<mgrwt>
<rscale>  1 0.30000000E+03</rscale>
<asrwt>0</asrwt>
<pdfrwt beam="1">  1       21 0.56806451E-02 0.30000000E+03</pdfrwt>
<pdfrwt beam="2">0</pdfrwt>
<totfact> 0.23153264E+04</totfact>
</mgrwt>
</event>
<event>
 6    1  0.1273846E-001  0.3000000E+03  0.7818608E-02  0.1093470E+00
         21   -1    0    0  501  502  0.00000000000E+00  0.00000000000E+00  0.25470374951E+01  0.25470374951E+01  0.00000000000E+00 0. -1.
         13   -1    0    0    0    0 -0.00000000000E+00 -0.00000000000E+00 -0.10000000000E+04  0.10000000000E+04  0.00000000000E+00 0.  1.
    9000005    2    1    2  501    0  0.37216749047E+02 -0.22404188070E+01 -0.83627271233E+03  0.83711070856E+03  0.34904307567E+01 0.  0.
         13    1    3    3    0    0  0.18352634543E+02  0.43879566752E+00 -0.39207131309E+03  0.39250086151E+03  0.00000000000E+00 0.  1.
          3    1    3    3  501    0  0.18864114505E+02 -0.26792144745E+01 -0.44420139924E+03  0.44460984705E+03  0.00000000000E+00 0.  1.
         -1    1    1    2    0  502 -0.37216749047E+02  0.22404188070E+01 -0.16118025017E+03  0.16543632894E+03  0.00000000000E+00 0. -1.
<mgrwt>
<rscale>  1 0.30000000E+03</rscale>
<asrwt>0</asrwt>
<pdfrwt beam="1">  1       21 0.92619741E-02 0.30000000E+03</pdfrwt>
<pdfrwt beam="2">0</pdfrwt>
<totfact> 0.98630375E+03</totfact>
</mgrwt>
</event>
<event>
 6    1  0.1273846E-001  0.3000000E+03  0.7818608E-02  0.1093470E+00
         21   -1    0    0  501  502  0.00000000000E+00  0.00000000000E+00  0.21541118457E+01  0.21541118457E+01  0.00000000000E+00 0. -1.
         13   -1    0    0    0    0 -0.00000000000E+00 -0.00000000000E+00 -0.10000000000E+04  0.10000000000E+04  0.00000000000E+00 0.  1.
    9000005    2    1    2  501    0  0.14000013491E+02 -0.37625449290E+02 -0.74972026696E+03  0.75080177209E+03  0.33387808730E+01 0.  0.
         13    1    3    3    0    0  0.62010620051E+01 -0.20112140254E+02 -0.41382330337E+03  0.41435815156E+03  0.00000000000E+00 0.  1.
          1    1    3    3  501    0  0.77989514861E+01 -0.17513309035E+02 -0.33589696359E+03  0.33644362052E+03  0.00000000000E+00 0.  1.
         -1    1    1    2    0  502 -0.14000013491E+02  0.37625449290E+02 -0.24812562119E+03  0.25135233976E+03  0.00000000000E+00 0. -1.
<mgrwt>
<rscale>  1 0.30000000E+03</rscale>
<asrwt>0</asrwt>
<pdfrwt beam="1">  1       21 0.78331505E-02 0.30000000E+03</pdfrwt>
<pdfrwt beam="2">0</pdfrwt>
<totfact> 0.13255340E+04</totfact>
</mgrwt>
</event>
<event>
 6    1  0.1273846E-001  0.3000000E+03  0.7818608E-02  0.1093470E+00
         21   -1    0    0  501  502  0.00000000000E+00  0.00000000000E+00  0.16635204815E+01  0.16635204815E+01  0.00000000000E+00 0. -1.
         13   -1    0    0    0    0 -0.00000000000E+00 -0.00000000000E+00 -0.10000000000E+04  0.10000000000E+04  0.00000000000E+00 0.  1.
    9000005    2    1    2  501    0  0.30102415786E+02  0.22737087359E+02 -0.68820163703E+03  0.68924272875E+03  0.33038391351E+01 0.  0.
         13    1    3    3    0    0  0.29650773759E+02  0.21769040060E+02 -0.67188846269E+03  0.67289461715E+03  0.00000000000E+00 0.  1.
          1    1    3    3  501    0  0.45164202748E+00  0.96804729930E+00 -0.16313174337E+02  0.16348111604E+02  0.00000000000E+00 0.  1.
         -3    1    1    2    0  502 -0.30102415786E+02 -0.22737087359E+02 -0.31013484249E+03  0.31242079173E+03  0.00000000000E+00 0. -1.
<mgrwt>
<rscale>  1 0.30000000E+03</rscale>
<asrwt>0</asrwt>
<pdfrwt beam="1">  1       21 0.60491781E-02 0.30000000E+03</pdfrwt>
<pdfrwt beam="2">0</pdfrwt>
<totfact> 0.20777046E+04</totfact>
</mgrwt>
</event>
<event>
 6    1  0.1273846E-001  0.3000000E+03  0.7818608E-02  0.1093470E+00
         21   -1    0    0  501  502  0.00000000000E+00  0.00000000000E+00  0.13784349193E+01  0.13784349193E+01  0.00000000000E+00 0. -1.
         13   -1    0    0    0    0 -0.00000000000E+00 -0.00000000000E+00 -0.10000000000E+04  0.10000000000E+04  0.00000000000E+00 0.  1.
    9000005    2    1    2  501    0  0.12671455107E+02 -0.31168274380E+02 -0.71009031394E+03  0.71089210136E+03  0.27016136404E+01 0.  0.
         13    1    3    3    0    0  0.39380715640E+01 -0.69608400660E+01 -0.15776524012E+03  0.15796782170E+03  0.00000000000E+00 0.  1.
          3    1    3    3  501    0  0.87333835429E+01 -0.24207434314E+02 -0.55232507382E+03  0.55292427966E+03  0.00000000000E+00 0.  1.
         -3    1    1    2    0  502 -0.12671455107E+02  0.31168274380E+02 -0.28853125114E+03  0.29048633356E+03  0.00000000000E+00 0. -1.
<mgrwt>
<rscale>  1 0.30000000E+03</rscale>
<asrwt>0</asrwt>
<pdfrwt beam="1">  1       21 0.50125012E-02 0.30000000E+03</pdfrwt>
<pdfrwt beam="2">0</pdfrwt>
<totfact> 0.28682290E+04</totfact>
</mgrwt>
</event>
<event>
 6    1  0.1273846E-001  0.3000000E+03  0.7818608E-02  0.1093470E+00
         21   -1    0    0  501  502  0.00000000000E+00  0.00000000000E+00  0.12842234746E+01  0.12842234746E+01  0.00000000000E+00 0. -1.
         13   -1    0    0    0    0 -0.00000000000E+00 -0.00000000000E+00 -0.10000000000E+04  0.10000000000E+04  0.00000000000E+00 0.  1.
    9000005    2    1    2  501    0  0.33776262813E+02 -0.99040408614E+01 -0.58802174331E+03  0.58908461785E+03  0.34914799036E+01 0.  0.
         13    1    3    3    0    0  0.36037980696E+01 -0.70305220380E+00 -0.46377728622E+02  0.46522847667E+02  0.00000000000E+00 0.  1.
          1    1    3    3  501    0  0.30172464743E+02 -0.92009886576E+01 -0.54164401469E+03  0.54256177018E+03  0.00000000000E+00 0.  1.
         -1    1    1    2    0  502 -0.33776262813E+02  0.99040408614E+01 -0.41069403322E+03  0.41219960562E+03  0.00000000000E+00 0. -1.
<mgrwt>
<rscale>  1 0.30000000E+03</rscale>
<asrwt>0</asrwt>
<pdfrwt beam="1">  1       21 0.46699134E-02 0.30000000E+03</pdfrwt>
<pdfrwt beam="2">0</pdfrwt>
<totfact> 0.32355656E+04</totfact>
</mgrwt>
</event>
<event>
 6    1  0.1273846E-001  0.3000000E+03  0.7818608E-02  0.1093470E+00
         21   -1    0    0  501  502  0.00000000000E+00  0.00000000000E+00  0.93355278010E+00  0.93355278010E+00  0.00000000000E+00 0. -1.
         13   -1    0    0    0    0 -0.00000000000E+00 -0.00000000000E+00 -0.10000000000E+04  0.10000000000E+04  0.00000000000E+00 0.  1.
    9000005    2    1    2  501    0  0.29483186453E+02 -0.76062317324E+01 -0.51811866237E+03  0.51902289219E+03  0.32712795448E+01 0.  0.
         13    1    3    3    0    0  0.24675553565E+01 -0.15466936636E+01 -0.55769599588E+02  0.55845584686E+02  0.00000000000E+00 0.  1.
          1    1    3    3  501    0  0.27015631097E+02 -0.60595380688E+01 -0.46234906278E+03  0.46317730750E+03  0.00000000000E+00 0.  1.
         -3    1    1    2    0  502 -0.29483186453E+02  0.76062317324E+01 -0.48094778485E+03  0.48191066059E+03  0.00000000000E+00 0. -1.
<mgrwt>
<rscale>  1 0.30000000E+03</rscale>
<asrwt>0</asrwt>
<pdfrwt beam="1">  1       21 0.33947445E-02 0.30000000E+03</pdfrwt>
<pdfrwt beam="2">0</pdfrwt>
<totfact> 0.55373974E+04</totfact>
</mgrwt>
</event>
<event>
 6    1  0.1273846E-001  0.3000000E+03  0.7818608E-02  0.1093470E+00
         21   -1    0    0  501  502  0.00000000000E+00  0.00000000000E+00  0.21776559453E+01  0.21776559453E+01  0.00000000000E+00 0. -1.
         13   -1    0    0    0    0 -0.00000000000E+00 -0.00000000000E+00 -0.10000000000E+04  0.10000000000E+04  0.00000000000E+00 0.  1.
    9000005    2    1    2  501    0  0.38919202200E+02  0.20954275699E+02 -0.65821066425E+03  0.65970155601E+03  0.33284371948E+01 0.  0.
         13    1    3    3    0    0  0.24820467441E+02  0.12225424478E+02 -0.43004790631E+03  0.43093702362E+03  0.00000000000E+00 0.  1.
          3    1    3    3  501    0  0.14098734759E+02  0.87288512203E+01 -0.22816275794E+03  0.22876453239E+03  0.00000000000E+00 0.  1.
         -1    1    1    2    0  502 -0.38919202200E+02 -0.20954275699E+02 -0.33961167980E+03  0.34247609994E+03  0.00000000000E+00 0. -1.
<mgrwt>
<rscale>  1 0.30000000E+03</rscale>
<asrwt>0</asrwt>
<pdfrwt beam="1">  1       21 0.79187656E-02 0.30000000E+03</pdfrwt>
<pdfrwt beam="2">0</pdfrwt>
<totfact> 0.13004861E+04</totfact>
</mgrwt>
</event>
<event>
 6    1  0.1273846E-001  0.3000000E+03  0.7818608E-02  0.1093470E+00
         21   -1    0    0  501  502  0.00000000000E+00  0.00000000000E+00  0.13632780177E+01  0.13632780177E+01  0.00000000000E+00 0. -1.
         13   -1    0    0    0    0 -0.00000000000E+00 -0.00000000000E+00 -0.10000000000E+04  0.10000000000E+04  0.00000000000E+00 0.  1.
    9000005    2    1    2  501    0  0.13762969392E+02 -0.32426617363E+02 -0.61716151252E+03  0.61826506570E+03  0.11065898048E+02 0.  0.
         13    1    3    3    0    0  0.74700684407E+00 -0.13906260214E+02 -0.19460918687E+03  0.19510683665E+03  0.00000000000E+00 0.  1.
          3    1    3    3  501    0  0.13015962548E+02 -0.18520357149E+02 -0.42255232565E+03  0.42315822906E+03  0.00000000000E+00 0.  1.
         -3    1    1    2    0  502 -0.13762969392E+02  0.32426617363E+02 -0.38147520947E+03  0.38309821231E+03  0.00000000000E+00 0. -1.
<mgrwt>
<rscale>  1 0.30000000E+03</rscale>
<asrwt>0</asrwt>
<pdfrwt beam="1">  1       21 0.49573851E-02 0.30000000E+03</pdfrwt>
<pdfrwt beam="2">0</pdfrwt>
<totfact> 0.29227954E+04</totfact>
</mgrwt>
</event>
<event>
 6    1  0.1273846E-001  0.3000000E+03  0.7818608E-02  0.1093470E+00
         21   -1    0    0  501  502  0.00000000000E+00  0.00000000000E+00  0.30030053030E+01  0.30030053030E+01  0.00000000000E+00 0. -1.
         13   -1    0    0    0    0 -0.00000000000E+00 -0.00000000000E+00 -0.10000000000E+04  0.10000000000E+04  0.00000000000E+00 0.  1.
    9000005    2    1    2  501    0 -0.29413116326E+02 -0.10212948512E+02 -0.91109985724E+03  0.91163696154E+03  0.30925808421E+01 0.  0.
         13    1    3    3    0    0 -0.18754921906E+02 -0.65367985477E+01 -0.62327857492E+03  0.62359494769E+03  0.00000000000E+00 0.  1.
          3    1    3    3  501    0 -0.10658194420E+02 -0.36761499646E+01 -0.28782128233E+03  0.28804201386E+03  0.00000000000E+00 0.  1.
         -3    1    1    2    0  502  0.29413116326E+02  0.10212948512E+02 -0.85897137453E+02  0.91366043758E+02  0.00000000000E+00 0. -1.
<mgrwt>
<rscale>  1 0.30000000E+03</rscale>
<asrwt>0</asrwt>
<pdfrwt beam="1">  1       21 0.10920042E-01 0.30000000E+03</pdfrwt>
<pdfrwt beam="2">0</pdfrwt>
<totfact> 0.73478063E+03</totfact>
</mgrwt>
</event>
<event>
 6    1  0.1273846E-001  0.3000000E+03  0.7818608E-02  0.1093470E+00
         21   -1    0    0  501  502  0.00000000000E+00  0.00000000000E+00  0.21305308439E+01  0.21305308439E+01  0.00000000000E+00 0. -1.
         13   -1    0    0    0    0 -0.00000000000E+00 -0.00000000000E+00 -0.10000000000E+04  0.10000000000E+04  0.00000000000E+00 0.  1.
    9000005    2    1    2  501    0 -0.71476720532E+01  0.34113348349E+02 -0.82704454419E+03  0.82778614539E+03  0.35234451134E+01 0.  0.
         13    1    3    3    0    0 -0.26634071007E+01  0.69789585893E+01 -0.19722300923E+03  0.19736442174E+03  0.00000000000E+00 0.  1.
          1    1    3    3  501    0 -0.44842649525E+01  0.27134389760E+02 -0.62982153496E+03  0.63042172365E+03  0.00000000000E+00 0.  1.
         -3    1    1    2    0  502  0.71476720532E+01 -0.34113348349E+02 -0.17082492496E+03  0.17434438546E+03  0.00000000000E+00 0. -1.
<mgrwt>
<rscale>  1 0.30000000E+03</rscale>
<asrwt>0</asrwt>
<pdfrwt beam="1">  1       21 0.77474012E-02 0.30000000E+03</pdfrwt>
<pdfrwt beam="2">0</pdfrwt>
<totfact> 0.13513740E+04</totfact>
</mgrwt>
</event>
<event>
 6    1  0.1273846E-001  0.3000000E+03  0.7818608E-02  0.1093470E+00
         21   -1    0    0  501  502  0.00000000000E+00  0.00000000000E+00  0.30655796430E+01  0.30655796430E+01  0.00000000000E+00 0. -1.
         13   -1    0    0    0    0 -0.00000000000E+00 -0.00000000000E+00 -0.10000000000E+04  0.10000000000E+04  0.00000000000E+00 0.  1.
    9000005    2    1    2  501    0  0.91930296762E+01 -0.34560458856E+02 -0.88120910212E+03  0.88194049391E+03  0.32582267367E+01 0.  0.
         13    1    3    3    0    0  0.17813804901E+00 -0.50479301891E+01 -0.12218223822E+03  0.12228660053E+03  0.00000000000E+00 0.  1.
          1    1    3    3  501    0  0.90148916272E+01 -0.29512528667E+02 -0.75902686390E+03  0.75965389339E+03  0.00000000000E+00 0.  1.
         -3    1    1    2    0  502 -0.91930296762E+01  0.34560458856E+02 -0.11572531824E+03  0.12112508573E+03  0.00000000000E+00 0. -1.
<mgrwt>
<rscale>  1 0.30000000E+03</rscale>
<asrwt>0</asrwt>
<pdfrwt beam="1">  1       21 0.11147586E-01 0.30000000E+03</pdfrwt>
<pdfrwt beam="2">0</pdfrwt>
<totfact> 0.70801016E+03</totfact>
</mgrwt>
</event>
<event>
 6    1  0.1273846E-001  0.3000000E+03  0.7818608E-02  0.1093470E+00
         21   -1    0    0  501  502  0.00000000000E+00  0.00000000000E+00  0.15595984280E+01  0.15595984280E+01  0.00000000000E+00 0. -1.
         13   -1    0    0    0    0 -0.00000000000E+00 -0.00000000000E+00 -0.10000000000E+04  0.10000000000E+04  0.00000000000E+00 0.  1.
    9000005    2    1    2  501    0  0.27410115988E+02  0.21327335515E+02 -0.26903551417E+03  0.27132836145E+03  0.57273153843E+01 0.  0.
         13    1    3    3    0    0  0.19988234065E+02  0.15291734996E+02 -0.17362434336E+03  0.17543881915E+03  0.00000000000E+00 0.  1.
          1    1    3    3  501    0  0.74218819233E+01  0.60356005191E+01 -0.95411170815E+02  0.95889542294E+02  0.00000000000E+00 0.  1.
         -1    1    1    2    0  502 -0.27410115988E+02 -0.21327335515E+02 -0.72940488740E+03  0.73023123698E+03  0.00000000000E+00 0. -1.
<mgrwt>
<rscale>  1 0.30000000E+03</rscale>
<asrwt>0</asrwt>
<pdfrwt beam="1">  1       21 0.56712790E-02 0.30000000E+03</pdfrwt>
<pdfrwt beam="2">0</pdfrwt>
<totfact> 0.23219030E+04</totfact>
</mgrwt>
</event>
<event>
 6    1  0.1273846E-001  0.3000000E+03  0.7818608E-02  0.1093470E+00
         21   -1    0    0  501  502  0.00000000000E+00  0.00000000000E+00  0.11204165533E+01  0.11204165533E+01  0.00000000000E+00 0. -1.
         13   -1    0    0    0    0 -0.00000000000E+00 -0.00000000000E+00 -0.10000000000E+04  0.10000000000E+04  0.00000000000E+00 0.  1.
    9000005    2    1    2  501    0  0.17395682183E+02  0.28364009467E+02 -0.45548212181E+03  0.45670519992E+03  0.29239615577E+01 0.  0.
         13    1    3    3    0    0  0.37792744401E+01  0.57831760637E+01 -0.11157163086E+03  0.11178531591E+03  0.00000000000E+00 0.  1.
          3    1    3    3  501    0  0.13616407743E+02  0.22580833403E+02 -0.34391049096E+03  0.34491988401E+03  0.00000000000E+00 0.  1.
         -3    1    1    2    0  502 -0.17395682183E+02 -0.28364009467E+02 -0.54339746163E+03  0.54441521663E+03  0.00000000000E+00 0. -1.
<mgrwt>
<rscale>  1 0.30000000E+03</rscale>
<asrwt>0</asrwt>
<pdfrwt beam="1">  1       21 0.40742506E-02 0.30000000E+03</pdfrwt>
<pdfrwt beam="2">0</pdfrwt>
<totfact> 0.40764332E+04</totfact>
</mgrwt>
</event>
<event>
 6    1  0.1273846E-001  0.3000000E+03  0.7818608E-02  0.1093470E+00
         21   -1    0    0  501  502  0.00000000000E+00  0.00000000000E+00  0.21002000315E+01  0.21002000315E+01  0.00000000000E+00 0. -1.
         13   -1    0    0    0    0 -0.00000000000E+00 -0.00000000000E+00 -0.10000000000E+04  0.10000000000E+04  0.00000000000E+00 0.  1.
    9000005    2    1    2  501    0  0.24639706911E+02  0.37285929137E+02 -0.60712919571E+03  0.60878223601E+03  0.35489338470E+01 0.  0.
         13    1    3    3    0    0  0.15955523846E+02  0.21235698837E+02 -0.36911277268E+03  0.37006725416E+03  0.00000000000E+00 0.  1.
          3    1    3    3  501    0  0.86841830655E+01  0.16050230300E+02 -0.23801642303E+03  0.23871498185E+03  0.00000000000E+00 0.  1.
         -3    1    1    2    0  502 -0.24639706911E+02 -0.37285929137E+02 -0.39077060426E+03  0.39331796402E+03  0.00000000000E+00 0. -1.
<mgrwt>
<rscale>  1 0.30000000E+03</rscale>
<asrwt>0</asrwt>
<pdfrwt beam="1">  1       21 0.76371071E-02 0.30000000E+03</pdfrwt>
<pdfrwt beam="2">0</pdfrwt>
<totfact> 0.13857693E+04</totfact>
</mgrwt>
</event>
<event>
 6    1  0.1273846E-001  0.3000000E+03  0.7818608E-02  0.1093470E+00
         21   -1    0    0  501  502  0.00000000000E+00  0.00000000000E+00  0.20745898003E+01  0.20745898003E+01  0.00000000000E+00 0. -1.
         13   -1    0    0    0    0 -0.00000000000E+00 -0.00000000000E+00 -0.10000000000E+04  0.10000000000E+04  0.00000000000E+00 0.  1.
    9000005    2    1    2  501    0  0.20911487873E+02 -0.38734236803E+02 -0.62504322333E+03  0.62660321045E+03  0.38627569092E+01 0.  0.
         13    1    3    3    0    0  0.29192097332E+01 -0.37074785841E+01 -0.55415252728E+02  0.55615801872E+02  0.00000000000E+00 0.  1.
          1    1    3    3  501    0  0.17992278140E+02 -0.35026758219E+02 -0.56962797060E+03  0.57098740858E+03  0.00000000000E+00 0.  1.
         -3    1    1    2    0  502 -0.20911487873E+02  0.38734236803E+02 -0.37288218687E+03  0.37547137935E+03  0.00000000000E+00 0. -1.
<mgrwt>
<rscale>  1 0.30000000E+03</rscale>
<asrwt>0</asrwt>
<pdfrwt beam="1">  1       21 0.75439788E-02 0.30000000E+03</pdfrwt>
<pdfrwt beam="2">0</pdfrwt>
<totfact> 0.14158759E+04</totfact>
</mgrwt>
</event>
<event>
 6    1  0.1273846E-001  0.3000000E+03  0.7818608E-02  0.1093470E+00
         21   -1    0    0  501  502  0.00000000000E+00  0.00000000000E+00  0.50462424236E+01  0.50462424236E+01  0.00000000000E+00 0. -1.
         13   -1    0    0    0    0 -0.00000000000E+00 -0.00000000000E+00 -0.10000000000E+04  0.10000000000E+04  0.00000000000E+00 0.  1.
    9000005    2    1    2  501    0 -0.42133030345E+02 -0.91533698062E+01 -0.89679008881E+03  0.89783112087E+03  0.30466018937E+01 0.  0.
         13    1    3    3    0    0 -0.80787787014E+01 -0.81191113507E+00 -0.15354699166E+03  0.15376151831E+03  0.00000000000E+00 0.  1.
          1    1    3    3  501    0 -0.34054251644E+02 -0.83414586711E+01 -0.74324309715E+03  0.74406960255E+03  0.00000000000E+00 0.  1.
         -1    1    1    2    0  502  0.42133030345E+02  0.91533698062E+01 -0.98163668767E+02  0.10721512156E+03  0.00000000000E+00 0. -1.
<mgrwt>
<rscale>  1 0.30000000E+03</rscale>
<asrwt>0</asrwt>
<pdfrwt beam="1">  1       21 0.18350011E-01 0.30000000E+03</pdfrwt>
<pdfrwt beam="2">0</pdfrwt>
<totfact> 0.28250887E+03</totfact>
</mgrwt>
</event>
<event>
 6    1  0.1273846E-001  0.3000000E+03  0.7818608E-02  0.1093470E+00
         21   -1    0    0  501  502  0.00000000000E+00  0.00000000000E+00  0.23263207350E+01  0.23263207350E+01  0.00000000000E+00 0. -1.
         13   -1    0    0    0    0 -0.00000000000E+00 -0.00000000000E+00 -0.10000000000E+04  0.10000000000E+04  0.00000000000E+00 0.  1.
    9000005    2    1    2  501    0  0.42258497220E+02 -0.21703586721E+02 -0.56519318879E+03  0.56724448831E+03  0.81328101438E+01 0.  0.
         13    1    3    3    0    0  0.35575437956E+02 -0.15224721626E+02 -0.47431161347E+03  0.47588749784E+03  0.00000000000E+00 0.  1.
          1    1    3    3  501    0  0.66830592640E+01 -0.64788650956E+01 -0.90881575319E+02  0.91356990463E+02  0.00000000000E+00 0.  1.
         -1    1    1    2    0  502 -0.42258497220E+02  0.21703586721E+02 -0.43248049048E+03  0.43508183243E+03  0.00000000000E+00 0. -1.
<mgrwt>
<rscale>  1 0.30000000E+03</rscale>
<asrwt>0</asrwt>
<pdfrwt beam="1">  1       21 0.84593660E-02 0.30000000E+03</pdfrwt>
<pdfrwt beam="2">0</pdfrwt>
<totfact> 0.11578672E+04</totfact>
</mgrwt>
</event>
<event>
 6    1  0.1273846E-001  0.3000000E+03  0.7818608E-02  0.1093470E+00
         21   -1    0    0  501  502  0.00000000000E+00  0.00000000000E+00  0.68648954220E+01  0.68648954220E+01  0.00000000000E+00 0. -1.
         13   -1    0    0    0    0 -0.00000000000E+00 -0.00000000000E+00 -0.10000000000E+04  0.10000000000E+04  0.00000000000E+00 0.  1.
    9000005    2    1    2  501    0 -0.29898208980E+02  0.68243721495E+02 -0.71649074158E+03  0.72036321654E+03  0.36155981933E+01 0.  0.
         13    1    3    3    0    0 -0.22710306390E+01  0.59624516061E+01 -0.71294472274E+02  0.71579397777E+02  0.00000000000E+00 0.  1.
          1    1    3    3  501    0 -0.27627178341E+02  0.62281269889E+02 -0.64519626930E+03  0.64878381876E+03  0.00000000000E+00 0.  1.
         -1    1    1    2    0  502  0.29898208980E+02 -0.68243721495E+02 -0.27664436300E+03  0.28650167889E+03  0.00000000000E+00 0. -1.
<mgrwt>
<rscale>  1 0.30000000E+03</rscale>
<asrwt>0</asrwt>
<pdfrwt beam="1">  1       21 0.24963309E-01 0.30000000E+03</pdfrwt>
<pdfrwt beam="2">0</pdfrwt>
<totfact> 0.15640872E+03</totfact>
</mgrwt>
</event>
<event>
 6    1  0.1273846E-001  0.3000000E+03  0.7818608E-02  0.1093470E+00
         21   -1    0    0  501  502  0.00000000000E+00  0.00000000000E+00  0.13229325967E+01  0.13229325967E+01  0.00000000000E+00 0. -1.
         13   -1    0    0    0    0 -0.00000000000E+00 -0.00000000000E+00 -0.10000000000E+04  0.10000000000E+04  0.00000000000E+00 0.  1.
    9000005    2    1    2  501    0 -0.37875663289E+01 -0.34397653270E+02 -0.35240706441E+03  0.35412708822E+03  0.42084861974E+01 0.  0.
         13    1    3    3    0    0 -0.25244027142E+01 -0.31578741412E+02 -0.31297623079E+03  0.31457544494E+03  0.00000000000E+00 0.  1.
          1    1    3    3  501    0 -0.12631636147E+01 -0.28189118582E+01 -0.39430833617E+02  0.39551643279E+02  0.00000000000E+00 0.  1.
         -1    1    1    2    0  502  0.37875663289E+01  0.34397653270E+02 -0.64627000299E+03  0.64719584438E+03  0.00000000000E+00 0. -1.
<mgrwt>
<rscale>  1 0.30000000E+03</rscale>
<asrwt>0</asrwt>
<pdfrwt beam="1">  1       21 0.48106741E-02 0.30000000E+03</pdfrwt>
<pdfrwt beam="2">0</pdfrwt>
<totfact> 0.30762042E+04</totfact>
</mgrwt>
</event>
<event>
 6    1  0.1273846E-001  0.3000000E+03  0.7818608E-02  0.1093470E+00
         21   -1    0    0  501  502  0.00000000000E+00  0.00000000000E+00  0.30004619611E+01  0.30004619611E+01  0.00000000000E+00 0. -1.
         13   -1    0    0    0    0 -0.00000000000E+00 -0.00000000000E+00 -0.10000000000E+04  0.10000000000E+04  0.00000000000E+00 0.  1.
    9000005    2    1    2  501    0 -0.14200487632E+02 -0.28031310082E+02 -0.90918619142E+03  0.90973421920E+03  0.30676905345E+01 0.  0.
         13    1    3    3    0    0 -0.11921639415E+02 -0.20931661419E+02 -0.70997691534E+03  0.71038544485E+03  0.00000000000E+00 0.  1.
          1    1    3    3  501    0 -0.22788482172E+01 -0.70996486634E+01 -0.19920927608E+03  0.19934877435E+03  0.00000000000E+00 0.  1.
         -3    1    1    2    0  502  0.14200487632E+02  0.28031310082E+02 -0.87813346617E+02  0.93266242757E+02  0.00000000000E+00 0. -1.
<mgrwt>
<rscale>  1 0.30000000E+03</rscale>
<asrwt>0</asrwt>
<pdfrwt beam="1">  1       21 0.10910794E-01 0.30000000E+03</pdfrwt>
<pdfrwt beam="2">0</pdfrwt>
<totfact> 0.73590084E+03</totfact>
</mgrwt>
</event>
<event>
 6    1  0.1273846E-001  0.3000000E+03  0.7818608E-02  0.1093470E+00
         21   -1    0    0  501  502  0.00000000000E+00  0.00000000000E+00  0.17803769797E+01  0.17803769797E+01  0.00000000000E+00 0. -1.
         13   -1    0    0    0    0 -0.00000000000E+00 -0.00000000000E+00 -0.10000000000E+04  0.10000000000E+04  0.00000000000E+00 0.  1.
    9000005    2    1    2  501    0 -0.85532593173E+01 -0.38338806149E+02 -0.67993324278E+03  0.68107920432E+03  0.40799033818E+01 0.  0.
         13    1    3    3    0    0 -0.60592338962E+01 -0.20591283629E+02 -0.39526369497E+03  0.39584606078E+03  0.00000000000E+00 0.  1.
          3    1    3    3  501    0 -0.24940254211E+01 -0.17747522520E+02 -0.28466954781E+03  0.28523314353E+03  0.00000000000E+00 0.  1.
         -3    1    1    2    0  502  0.85532593173E+01  0.38338806149E+02 -0.31828638024E+03  0.32070117266E+03  0.00000000000E+00 0. -1.
<mgrwt>
<rscale>  1 0.30000000E+03</rscale>
<asrwt>0</asrwt>
<pdfrwt beam="1">  1       21 0.64741118E-02 0.30000000E+03</pdfrwt>
<pdfrwt beam="2">0</pdfrwt>
<totfact> 0.18477260E+04</totfact>
</mgrwt>
</event>
<event>
 6    1  0.1273846E-001  0.3000000E+03  0.7818608E-02  0.1093470E+00
         21   -1    0    0  501  502  0.00000000000E+00  0.00000000000E+00  0.17709362056E+01  0.17709362056E+01  0.00000000000E+00 0. -1.
         13   -1    0    0    0    0 -0.00000000000E+00 -0.00000000000E+00 -0.10000000000E+04  0.10000000000E+04  0.00000000000E+00 0.  1.
    9000005    2    1    2  501    0  0.22023800140E+02  0.25186045476E+02 -0.80229666628E+03  0.80300250548E+03  0.37011371055E+01 0.  0.
         13    1    3    3    0    0  0.15853713916E+02  0.16045655067E+02 -0.56366449892E+03  0.56411565360E+03  0.00000000000E+00 0.  1.
          3    1    3    3  501    0  0.61700862241E+01  0.91403904087E+01 -0.23863216736E+03  0.23888685188E+03  0.00000000000E+00 0.  1.
         -1    1    1    2    0  502 -0.22023800140E+02 -0.25186045476E+02 -0.19593239751E+03  0.19876843073E+03  0.00000000000E+00 0. -1.
<mgrwt>
<rscale>  1 0.30000000E+03</rscale>
<asrwt>0</asrwt>
<pdfrwt beam="1">  1       21 0.64397816E-02 0.30000000E+03</pdfrwt>
<pdfrwt beam="2">0</pdfrwt>
<totfact> 0.18648071E+04</totfact>
</mgrwt>
</event>
<event>
 6    1  0.1273846E-001  0.3000000E+03  0.7818608E-02  0.1093470E+00
         21   -1    0    0  501  502  0.00000000000E+00  0.00000000000E+00  0.17234745709E+01  0.17234745709E+01  0.00000000000E+00 0. -1.
         13   -1    0    0    0    0 -0.00000000000E+00 -0.00000000000E+00 -0.10000000000E+04  0.10000000000E+04  0.00000000000E+00 0.  1.
    9000005    2    1    2  501    0 -0.29142996890E+02  0.24813686087E+02 -0.69105503675E+03  0.69212683960E+03  0.41791122297E+01 0.  0.
         13    1    3    3    0    0 -0.11644061278E+02  0.94835021560E+01 -0.30815813902E+03  0.30852383963E+03  0.00000000000E+00 0.  1.
          3    1    3    3  501    0 -0.17498935612E+02  0.15330183931E+02 -0.38289689773E+03  0.38360299996E+03  0.00000000000E+00 0.  1.
         -3    1    1    2    0  502  0.29142996890E+02 -0.24813686087E+02 -0.30722148867E+03  0.30959663498E+03  0.00000000000E+00 0. -1.
<mgrwt>
<rscale>  1 0.30000000E+03</rscale>
<asrwt>0</asrwt>
<pdfrwt beam="1">  1       21 0.62671935E-02 0.30000000E+03</pdfrwt>
<pdfrwt beam="2">0</pdfrwt>
<totfact> 0.19544971E+04</totfact>
</mgrwt>
</event>
<event>
 6    1  0.1273846E-001  0.3000000E+03  0.7818608E-02  0.1093470E+00
         21   -1    0    0  501  502  0.00000000000E+00  0.00000000000E+00  0.32663598991E+01  0.32663598991E+01  0.00000000000E+00 0. -1.
         13   -1    0    0    0    0 -0.00000000000E+00 -0.00000000000E+00 -0.10000000000E+04  0.10000000000E+04  0.00000000000E+00 0.  1.
    9000005    2    1    2  501    0  0.46919509326E+02  0.32229850251E+02 -0.53763710197E+03  0.54065438975E+03  0.36485801529E+01 0.  0.
         13    1    3    3    0    0  0.32301584728E+02  0.21742742530E+02 -0.38304729530E+03  0.38502125872E+03  0.00000000000E+00 0.  1.
          1    1    3    3  501    0  0.14617924599E+02  0.10487107721E+02 -0.15458980667E+03  0.15563313103E+03  0.00000000000E+00 0.  1.
         -3    1    1    2    0  502 -0.46919509326E+02 -0.32229850251E+02 -0.45909653813E+03  0.46261197015E+03  0.00000000000E+00 0. -1.
<mgrwt>
<rscale>  1 0.30000000E+03</rscale>
<asrwt>0</asrwt>
<pdfrwt beam="1">  1       21 0.11877697E-01 0.30000000E+03</pdfrwt>
<pdfrwt beam="2">0</pdfrwt>
<totfact> 0.63133477E+03</totfact>
</mgrwt>
</event>
<event>
 6    1  0.1273846E-001  0.3000000E+03  0.7818608E-02  0.1093470E+00
         21   -1    0    0  501  502  0.00000000000E+00  0.00000000000E+00  0.12174656381E+01  0.12174656381E+01  0.00000000000E+00 0. -1.
         13   -1    0    0    0    0 -0.00000000000E+00 -0.00000000000E+00 -0.10000000000E+04  0.10000000000E+04  0.00000000000E+00 0.  1.
    9000005    2    1    2  501    0 -0.28751236111E+02 -0.17624544705E+02 -0.62516620167E+03  0.62608226040E+03  0.29931463036E+01 0.  0.
         13    1    3    3    0    0 -0.28825256810E+02 -0.17571701805E+02 -0.62275431165E+03  0.62366865627E+03  0.00000000000E+00 0.  1.
          1    1    3    3  501    0  0.74020699388E-01 -0.52842899849E-01 -0.24118900222E+01  0.24136041339E+01  0.00000000000E+00 0.  1.
         -1    1    1    2    0  502  0.28751236111E+02  0.17624544705E+02 -0.37361633269E+03  0.37513520524E+03  0.00000000000E+00 0. -1.
<mgrwt>
<rscale>  1 0.30000000E+03</rscale>
<asrwt>0</asrwt>
<pdfrwt beam="1">  1       21 0.44271571E-02 0.30000000E+03</pdfrwt>
<pdfrwt beam="2">0</pdfrwt>
<totfact> 0.35425146E+04</totfact>
</mgrwt>
</event>
<event>
 6    1  0.1273846E-001  0.3000000E+03  0.7818608E-02  0.1093470E+00
         21   -1    0    0  501  502  0.00000000000E+00  0.00000000000E+00  0.11056982030E+01  0.11056982030E+01  0.00000000000E+00 0. -1.
         13   -1    0    0    0    0 -0.00000000000E+00 -0.00000000000E+00 -0.10000000000E+04  0.10000000000E+04  0.00000000000E+00 0.  1.
    9000005    2    1    2  501    0  0.32375101980E+02  0.68661529398E+01 -0.53456754054E+03  0.53560099092E+03  0.32672296655E+01 0.  0.
         13    1    3    3    0    0  0.79886146146E+01  0.57106040124E+00 -0.11558138435E+03  0.11585853651E+03  0.00000000000E+00 0.  1.
          1    1    3    3  501    0  0.24386487365E+02  0.62950925386E+01 -0.41898615619E+03  0.41974245441E+03  0.00000000000E+00 0.  1.
         -1    1    1    2    0  502 -0.32375101980E+02 -0.68661529398E+01 -0.46432676125E+03  0.46550470728E+03  0.00000000000E+00 0. -1.
<mgrwt>
<rscale>  1 0.30000000E+03</rscale>
<asrwt>0</asrwt>
<pdfrwt beam="1">  1       21 0.40207292E-02 0.30000000E+03</pdfrwt>
<pdfrwt beam="2">0</pdfrwt>
<totfact> 0.41682858E+04</totfact>
</mgrwt>
</event>
<event>
 6    1  0.1273846E-001  0.3000000E+03  0.7818608E-02  0.1093470E+00
         21   -1    0    0  501  502  0.00000000000E+00  0.00000000000E+00  0.21278038848E+01  0.21278038848E+01  0.00000000000E+00 0. -1.
         13   -1    0    0    0    0 -0.00000000000E+00 -0.00000000000E+00 -0.10000000000E+04  0.10000000000E+04  0.00000000000E+00 0.  1.
    9000005    2    1    2  501    0 -0.34723070592E+02  0.22905204260E+02 -0.71452454346E+03  0.71574304123E+03  0.35267341735E+01 0.  0.
         13    1    3    3    0    0 -0.72976789752E+01  0.36299309245E+01 -0.12355607470E+03  0.12382461836E+03  0.00000000000E+00 0.  1.
          3    1    3    3  501    0 -0.27425391617E+02  0.19275273336E+02 -0.59096846876E+03  0.59191842287E+03  0.00000000000E+00 0.  1.
         -3    1    1    2    0  502  0.34723070592E+02 -0.22905204260E+02 -0.28334765265E+03  0.28638476265E+03  0.00000000000E+00 0. -1.
<mgrwt>
<rscale>  1 0.30000000E+03</rscale>
<asrwt>0</asrwt>
<pdfrwt beam="1">  1       21 0.77374850E-02 0.30000000E+03</pdfrwt>
<pdfrwt beam="2">0</pdfrwt>
<totfact> 0.13544122E+04</totfact>
</mgrwt>
</event>
<event>
 6    1  0.1273846E-001  0.3000000E+03  0.7818608E-02  0.1093470E+00
         21   -1    0    0  501  502  0.00000000000E+00  0.00000000000E+00  0.21272600136E+01  0.21272600136E+01  0.00000000000E+00 0. -1.
         13   -1    0    0    0    0 -0.00000000000E+00 -0.00000000000E+00 -0.10000000000E+04  0.10000000000E+04  0.00000000000E+00 0.  1.
    9000005    2    1    2  501    0  0.25354210568E+02 -0.38246935203E+02 -0.54593472166E+03  0.54786562125E+03  0.25208301475E+01 0.  0.
         13    1    3    3    0    0  0.14206756390E+02 -0.19230911210E+02 -0.28797894771E+03  0.28896978076E+03  0.00000000000E+00 0.  1.
          3    1    3    3  501    0  0.11147454178E+02 -0.19016023992E+02 -0.25795577396E+03  0.25889584048E+03  0.00000000000E+00 0.  1.
         -1    1    1    2    0  502 -0.25354210568E+02  0.38246935203E+02 -0.45193801833E+03  0.45426163877E+03  0.00000000000E+00 0. -1.
<mgrwt>
<rscale>  1 0.30000000E+03</rscale>
<asrwt>0</asrwt>
<pdfrwt beam="1">  1       21 0.77355073E-02 0.30000000E+03</pdfrwt>
<pdfrwt beam="2">0</pdfrwt>
<totfact> 0.13550194E+04</totfact>
</mgrwt>
</event>
<event>
 6    1  0.1273846E-001  0.3000000E+03  0.7818608E-02  0.1093470E+00
         21   -1    0    0  501  502  0.00000000000E+00  0.00000000000E+00  0.15576363645E+01  0.15576363645E+01  0.00000000000E+00 0. -1.
         13   -1    0    0    0    0 -0.00000000000E+00 -0.00000000000E+00 -0.10000000000E+04  0.10000000000E+04  0.00000000000E+00 0.  1.
    9000005    2    1    2  501    0 -0.31598193049E+02 -0.12880263721E+02 -0.75009780059E+03  0.75087981726E+03  0.30728681459E+01 0.  0.
         13    1    3    3    0    0 -0.29888708426E+02 -0.12889508766E+02 -0.71418594052E+03  0.71492729138E+03  0.00000000000E+00 0.  1.
          3    1    3    3  501    0 -0.17094846234E+01  0.92450450122E-02 -0.35911860074E+02  0.35952525880E+02  0.00000000000E+00 0.  1.
         -1    1    1    2    0  502  0.31598193049E+02  0.12880263721E+02 -0.24834456304E+03  0.25067781910E+03  0.00000000000E+00 0. -1.
<mgrwt>
<rscale>  1 0.30000000E+03</rscale>
<asrwt>0</asrwt>
<pdfrwt beam="1">  1       21 0.56641442E-02 0.30000000E+03</pdfrwt>
<pdfrwt beam="2">0</pdfrwt>
<totfact> 0.23269321E+04</totfact>
</mgrwt>
</event>
<event>
 6    1  0.1273846E-001  0.3000000E+03  0.7818608E-02  0.1093470E+00
         21   -1    0    0  501  502  0.00000000000E+00  0.00000000000E+00  0.12814642052E+01  0.12814642052E+01  0.00000000000E+00 0. -1.
         13   -1    0    0    0    0 -0.00000000000E+00 -0.00000000000E+00 -0.10000000000E+04  0.10000000000E+04  0.00000000000E+00 0.  1.
    9000005    2    1    2  501    0 -0.68745763436E+01  0.33226886045E+02 -0.65624218448E+03  0.65712839220E+03  0.35543490287E+01 0.  0.
         13    1    3    3    0    0 -0.50502005059E+01  0.18125165437E+02 -0.33908793251E+03  0.33960955835E+03  0.00000000000E+00 0.  1.
          1    1    3    3  501    0 -0.18243758377E+01  0.15101720607E+02 -0.31715425196E+03  0.31751883385E+03  0.00000000000E+00 0.  1.
         -3    1    1    2    0  502  0.68745763436E+01 -0.33226886045E+02 -0.34247635132E+03  0.34415307200E+03  0.00000000000E+00 0. -1.
<mgrwt>
<rscale>  1 0.30000000E+03</rscale>
<asrwt>0</asrwt>
<pdfrwt beam="1">  1       21 0.46598797E-02 0.30000000E+03</pdfrwt>
<pdfrwt beam="2">0</pdfrwt>
<totfact> 0.32474166E+04</totfact>
</mgrwt>
</event>
<event>
 6    1  0.1273846E-001  0.3000000E+03  0.7818608E-02  0.1093470E+00
         21   -1    0    0  501  502  0.00000000000E+00  0.00000000000E+00  0.16064421200E+01  0.16064421200E+01  0.00000000000E+00 0. -1.
         13   -1    0    0    0    0 -0.00000000000E+00 -0.00000000000E+00 -0.10000000000E+04  0.10000000000E+04  0.00000000000E+00 0.  1.
    9000005    2    1    2  501    0 -0.50204650376E+01 -0.37909760438E+02 -0.35317397679E+03  0.35525463170E+03  0.34118118304E+01 0.  0.
         13    1    3    3    0    0 -0.48009653008E+01 -0.35234949384E+02 -0.33527484078E+03  0.33715540895E+03  0.00000000000E+00 0.  1.
          3    1    3    3  501    0 -0.21949973679E+00 -0.26748110545E+01 -0.17899136013E+02  0.18099222754E+02  0.00000000000E+00 0.  1.
         -3    1    1    2    0  502  0.50204650376E+01  0.37909760438E+02 -0.64521958109E+03  0.64635181042E+03  0.00000000000E+00 0. -1.
<mgrwt>
<rscale>  1 0.30000000E+03</rscale>
<asrwt>0</asrwt>
<pdfrwt beam="1">  1       21 0.58416200E-02 0.30000000E+03</pdfrwt>
<pdfrwt beam="2">0</pdfrwt>
<totfact> 0.22066098E+04</totfact>
</mgrwt>
</event>
<event>
 6    1  0.1273846E-001  0.3000000E+03  0.7818608E-02  0.1093470E+00
         21   -1    0    0  501  502  0.00000000000E+00  0.00000000000E+00  0.33850086744E+01  0.33850086744E+01  0.00000000000E+00 0. -1.
         13   -1    0    0    0    0 -0.00000000000E+00 -0.00000000000E+00 -0.10000000000E+04  0.10000000000E+04  0.00000000000E+00 0.  1.
    9000005    2    1    2  501    0  0.87292625594E+01 -0.57090184022E+02 -0.55575734782E+03  0.55876050309E+03  0.34030884950E+01 0.  0.
         13    1    3    3    0    0  0.61916289490E+01 -0.41268234682E+02 -0.41581373503E+03  0.41790245955E+03  0.00000000000E+00 0.  1.
          3    1    3    3  501    0  0.25376336104E+01 -0.15821949340E+02 -0.13994361280E+03  0.14085804353E+03  0.00000000000E+00 0.  1.
         -3    1    1    2    0  502 -0.87292625594E+01  0.57090184022E+02 -0.44085764350E+03  0.44462450559E+03  0.00000000000E+00 0. -1.
<mgrwt>
<rscale>  1 0.30000000E+03</rscale>
<asrwt>0</asrwt>
<pdfrwt beam="1">  1       21 0.12309148E-01 0.30000000E+03</pdfrwt>
<pdfrwt beam="2">0</pdfrwt>
<totfact> 0.59171360E+03</totfact>
</mgrwt>
</event>
<event>
 6    1  0.1273846E-001  0.3000000E+03  0.7818608E-02  0.1093470E+00
         21   -1    0    0  501  502  0.00000000000E+00  0.00000000000E+00  0.31515213982E+01  0.31515213982E+01  0.00000000000E+00 0. -1.
         13   -1    0    0    0    0 -0.00000000000E+00 -0.00000000000E+00 -0.10000000000E+04  0.10000000000E+04  0.00000000000E+00 0.  1.
    9000005    2    1    2  501    0 -0.14643180972E+02  0.45347067162E+02 -0.76306645438E+03  0.76456230518E+03  0.37848968044E+01 0.  0.
         13    1    3    3    0    0 -0.53897009659E+01  0.22838292454E+02 -0.37285370310E+03  0.37359138159E+03  0.00000000000E+00 0.  1.
          1    1    3    3  501    0 -0.92534800062E+01  0.22508774707E+02 -0.39021275128E+03  0.39097092359E+03  0.00000000000E+00 0.  1.
         -3    1    1    2    0  502  0.14643180972E+02 -0.45347067162E+02 -0.23378202422E+03  0.23858921622E+03  0.00000000000E+00 0. -1.
<mgrwt>
<rscale>  1 0.30000000E+03</rscale>
<asrwt>0</asrwt>
<pdfrwt beam="1">  1       21 0.11460102E-01 0.30000000E+03</pdfrwt>
<pdfrwt beam="2">0</pdfrwt>
<totfact> 0.67357048E+03</totfact>
</mgrwt>
</event>
<event>
 6    1  0.1273846E-001  0.3000000E+03  0.7818608E-02  0.1093470E+00
         21   -1    0    0  501  502  0.00000000000E+00  0.00000000000E+00  0.23084751359E+01  0.23084751359E+01  0.00000000000E+00 0. -1.
         13   -1    0    0    0    0 -0.00000000000E+00 -0.00000000000E+00 -0.10000000000E+04  0.10000000000E+04  0.00000000000E+00 0.  1.
    9000005    2    1    2  501    0 -0.97332966937E+01  0.30391984910E+02 -0.87327174173E+03  0.87386123988E+03  0.33943834075E+01 0.  0.
         13    1    3    3    0    0 -0.50856363398E+01  0.16223307104E+02 -0.51094322042E+03  0.51122601057E+03  0.00000000000E+00 0.  1.
          1    1    3    3  501    0 -0.46476603539E+01  0.14168677806E+02 -0.36232852131E+03  0.36263522930E+03  0.00000000000E+00 0.  1.
         -1    1    1    2    0  502  0.97332966937E+01 -0.30391984910E+02 -0.12441978313E+03  0.12844723526E+03  0.00000000000E+00 0. -1.
<mgrwt>
<rscale>  1 0.30000000E+03</rscale>
<asrwt>0</asrwt>
<pdfrwt beam="1">  1       21 0.83944727E-02 0.30000000E+03</pdfrwt>
<pdfrwt beam="2">0</pdfrwt>
<totfact> 0.11736875E+04</totfact>
</mgrwt>
</event>
<event>
 6    1  0.1273846E-001  0.3000000E+03  0.7818608E-02  0.1093470E+00
         21   -1    0    0  501  502  0.00000000000E+00  0.00000000000E+00  0.18625997431E+01  0.18625997431E+01  0.00000000000E+00 0. -1.
         13   -1    0    0    0    0 -0.00000000000E+00 -0.00000000000E+00 -0.10000000000E+04  0.10000000000E+04  0.00000000000E+00 0.  1.
    9000005    2    1    2  501    0  0.30255801217E+02  0.12394179101E+02 -0.82567875673E+03  0.82633193886E+03  0.31677566686E+01 0.  0.
         13    1    3    3    0    0  0.26954612918E+01  0.18561411803E+01 -0.10007757461E+03  0.10013107266E+03  0.00000000000E+00 0.  1.
          1    1    3    3  501    0  0.27560339926E+02  0.10538037921E+02 -0.72560118212E+03  0.72620086620E+03  0.00000000000E+00 0.  1.
         -1    1    1    2    0  502 -0.30255801217E+02 -0.12394179101E+02 -0.17245864353E+03  0.17553066088E+03  0.00000000000E+00 0. -1.
<mgrwt>
<rscale>  1 0.30000000E+03</rscale>
<asrwt>0</asrwt>
<pdfrwt beam="1">  1       21 0.67731043E-02 0.30000000E+03</pdfrwt>
<pdfrwt beam="2">0</pdfrwt>
<totfact> 0.17086362E+04</totfact>
</mgrwt>
</event>
<event>
 6    1  0.1273846E-001  0.3000000E+03  0.7818608E-02  0.1093470E+00
         21   -1    0    0  501  502  0.00000000000E+00  0.00000000000E+00  0.13999584777E+01  0.13999584777E+01  0.00000000000E+00 0. -1.
         13   -1    0    0    0    0 -0.00000000000E+00 -0.00000000000E+00 -0.10000000000E+04  0.10000000000E+04  0.00000000000E+00 0.  1.
    9000005    2    1    2  501    0 -0.21937133214E+02 -0.27582328143E+02 -0.66555265715E+03  0.66649313132E+03  0.32759759069E+01 0.  0.
         13    1    3    3    0    0 -0.20022074090E+02 -0.25370879591E+02 -0.59095317358E+03  0.59183631043E+03  0.00000000000E+00 0.  1.
          3    1    3    3  501    0 -0.19150591239E+01 -0.22114485521E+01 -0.74599483571E+02  0.74656820888E+02  0.00000000000E+00 0.  1.
         -3    1    1    2    0  502  0.21937133214E+02  0.27582328143E+02 -0.33304738437E+03  0.33490682716E+03  0.00000000000E+00 0. -1.
<mgrwt>
<rscale>  1 0.30000000E+03</rscale>
<asrwt>0</asrwt>
<pdfrwt beam="1">  1       21 0.50907688E-02 0.30000000E+03</pdfrwt>
<pdfrwt beam="2">0</pdfrwt>
<totfact> 0.27934247E+04</totfact>
</mgrwt>
</event>
<event>
 6    1  0.1273846E-001  0.3000000E+03  0.7818608E-02  0.1093470E+00
         21   -1    0    0  501  502  0.00000000000E+00  0.00000000000E+00  0.14802684778E+01  0.14802684778E+01  0.00000000000E+00 0. -1.
         13   -1    0    0    0    0 -0.00000000000E+00 -0.00000000000E+00 -0.10000000000E+04  0.10000000000E+04  0.00000000000E+00 0.  1.
    9000005    2    1    2  501    0  0.18075955827E+02 -0.24623660672E+02 -0.80281750230E+03  0.80340849521E+03  0.40253357817E+01 0.  0.
         13    1    3    3    0    0  0.15184226709E+02 -0.18647940695E+02 -0.65696963509E+03  0.65740961954E+03  0.00000000000E+00 0.  1.
          3    1    3    3  501    0  0.28917291175E+01 -0.59757199771E+01 -0.14584786720E+03  0.14599887566E+03  0.00000000000E+00 0.  1.
         -1    1    1    2    0  502 -0.18075955827E+02  0.24623660672E+02 -0.19570222922E+03  0.19807177327E+03  0.00000000000E+00 0. -1.
<mgrwt>
<rscale>  1 0.30000000E+03</rscale>
<asrwt>0</asrwt>
<pdfrwt beam="1">  1       21 0.53828058E-02 0.30000000E+03</pdfrwt>
<pdfrwt beam="2">0</pdfrwt>
<totfact> 0.25394183E+04</totfact>
</mgrwt>
</event>
<event>
 6    1  0.1273846E-001  0.3000000E+03  0.7818608E-02  0.1093470E+00
         21   -1    0    0  501  502  0.00000000000E+00  0.00000000000E+00  0.13516324567E+01  0.13516324567E+01  0.00000000000E+00 0. -1.
         13   -1    0    0    0    0 -0.00000000000E+00 -0.00000000000E+00 -0.10000000000E+04  0.10000000000E+04  0.00000000000E+00 0.  1.
    9000005    2    1    2  501    0  0.35219012447E+02  0.76710883343E+01 -0.59250875709E+03  0.59361567915E+03  0.37044404303E+01 0.  0.
         13    1    3    3    0    0  0.91425102988E+01  0.34878959436E+01 -0.17278526740E+03  0.17306212625E+03  0.00000000000E+00 0.  1.
          1    1    3    3  501    0  0.26076502148E+02  0.41831923907E+01 -0.41972348969E+03  0.42055355290E+03  0.00000000000E+00 0.  1.
         -1    1    1    2    0  502 -0.35219012447E+02 -0.76710883343E+01 -0.40613961046E+03  0.40773595330E+03  0.00000000000E+00 0. -1.
<mgrwt>
<rscale>  1 0.30000000E+03</rscale>
<asrwt>0</asrwt>
<pdfrwt beam="1">  1       21 0.49150375E-02 0.30000000E+03</pdfrwt>
<pdfrwt beam="2">0</pdfrwt>
<totfact> 0.29658284E+04</totfact>
</mgrwt>
</event>
<event>
 6    1  0.1273846E-001  0.3000000E+03  0.7818608E-02  0.1093470E+00
         21   -1    0    0  501  502  0.00000000000E+00  0.00000000000E+00  0.10422559588E+01  0.10422559588E+01  0.00000000000E+00 0. -1.
         13   -1    0    0    0    0 -0.00000000000E+00 -0.00000000000E+00 -0.10000000000E+04  0.10000000000E+04  0.00000000000E+00 0.  1.
    9000005    2    1    2  501    0  0.31080812372E+02  0.84862630413E+01 -0.50407289694E+03  0.50510975506E+03  0.28888870762E+01 0.  0.
         13    1    3    3    0    0  0.93421338147E+01  0.12877275421E+01 -0.13953908220E+03  0.13985738868E+03  0.00000000000E+00 0.  1.
          3    1    3    3  501    0  0.21738678557E+02  0.71985354993E+01 -0.36453381474E+03  0.36525236638E+03  0.00000000000E+00 0.  1.
         -1    1    1    2    0  502 -0.31080812372E+02 -0.84862630413E+01 -0.49488484710E+03  0.49593250090E+03  0.00000000000E+00 0. -1.
<mgrwt>
<rscale>  1 0.30000000E+03</rscale>
<asrwt>0</asrwt>
<pdfrwt beam="1">  1       21 0.37900297E-02 0.30000000E+03</pdfrwt>
<pdfrwt beam="2">0</pdfrwt>
<totfact> 0.46038843E+04</totfact>
</mgrwt>
</event>
<event>
 6    1  0.1273846E-001  0.3000000E+03  0.7818608E-02  0.1093470E+00
         21   -1    0    0  501  502  0.00000000000E+00  0.00000000000E+00  0.33511810973E+01  0.33511810973E+01  0.00000000000E+00 0. -1.
         13   -1    0    0    0    0 -0.00000000000E+00 -0.00000000000E+00 -0.10000000000E+04  0.10000000000E+04  0.00000000000E+00 0.  1.
    9000005    2    1    2  501    0 -0.33342058585E+02 -0.42121781441E+02 -0.68250196977E+03  0.68464413668E+03  0.65358859670E+01 0.  0.
         13    1    3    3    0    0 -0.63504129020E+01 -0.10693748301E+02 -0.13143213894E+03  0.13201928322E+03  0.00000000000E+00 0.  1.
          1    1    3    3  501    0 -0.26991645683E+02 -0.31428033140E+02 -0.55106983083E+03  0.55262485346E+03  0.00000000000E+00 0.  1.
         -3    1    1    2    0  502  0.33342058585E+02  0.42121781441E+02 -0.31414684913E+03  0.31870704442E+03  0.00000000000E+00 0. -1.
<mgrwt>
<rscale>  1 0.30000000E+03</rscale>
<asrwt>0</asrwt>
<pdfrwt beam="1">  1       21 0.12186139E-01 0.30000000E+03</pdfrwt>
<pdfrwt beam="2">0</pdfrwt>
<totfact> 0.60262383E+03</totfact>
</mgrwt>
</event>
<event>
 6    1  0.1273846E-001  0.3000000E+03  0.7818608E-02  0.1093470E+00
         21   -1    0    0  501  502  0.00000000000E+00  0.00000000000E+00  0.10291494995E+02  0.10291494995E+02  0.00000000000E+00 0. -1.
         13   -1    0    0    0    0 -0.00000000000E+00 -0.00000000000E+00 -0.10000000000E+04  0.10000000000E+04  0.00000000000E+00 0.  1.
    9000005    2    1    2  501    0 -0.37483714609E+02 -0.62639372315E+02 -0.84557380985E+03  0.84872562554E+03  0.33763472565E+01 0.  0.
         13    1    3    3    0    0 -0.52970643803E+00 -0.64116341998E+00 -0.14379617860E+02  0.14403648470E+02  0.00000000000E+00 0.  1.
          3    1    3    3  501    0 -0.36954008171E+02 -0.61998208895E+02 -0.83119419199E+03  0.83432197707E+03  0.00000000000E+00 0.  1.
         -3    1    1    2    0  502  0.37483714609E+02  0.62639372315E+02 -0.14413469515E+03  0.16156586945E+03  0.00000000000E+00 0. -1.
<mgrwt>
<rscale>  1 0.30000000E+03</rscale>
<asrwt>0</asrwt>
<pdfrwt beam="1">  1       21 0.37423697E-01 0.30000000E+03</pdfrwt>
<pdfrwt beam="2">0</pdfrwt>
<totfact> 0.69352263E+02</totfact>
</mgrwt>
</event>
<event>
 6    1  0.1273846E-001  0.3000000E+03  0.7818608E-02  0.1093470E+00
         21   -1    0    0  501  502  0.00000000000E+00  0.00000000000E+00  0.41425650439E+01  0.41425650439E+01  0.00000000000E+00 0. -1.
         13   -1    0    0    0    0 -0.00000000000E+00 -0.00000000000E+00 -0.10000000000E+04  0.10000000000E+04  0.00000000000E+00 0.  1.
    9000005    2    1    2  501    0 -0.39711964524E+02 -0.27437463572E+02 -0.82863250263E+03  0.83009075516E+03  0.94330719997E+01 0.  0.
         13    1    3    3    0    0 -0.37573413497E+02 -0.27860417000E+02 -0.77151390196E+03  0.77293056943E+03  0.00000000000E+00 0.  1.
          3    1    3    3  501    0 -0.21385510266E+01  0.42295342796E+00 -0.57118600675E+02  0.57160185734E+02  0.00000000000E+00 0.  1.
         -1    1    1    2    0  502  0.39711964524E+02  0.27437463572E+02 -0.16722493232E+03  0.17405180988E+03  0.00000000000E+00 0. -1.
<mgrwt>
<rscale>  1 0.30000000E+03</rscale>
<asrwt>0</asrwt>
<pdfrwt beam="1">  1       21 0.15063905E-01 0.30000000E+03</pdfrwt>
<pdfrwt beam="2">0</pdfrwt>
<totfact> 0.40857517E+03</totfact>
</mgrwt>
</event>
<event>
 6    1  0.1273846E-001  0.3000000E+03  0.7818608E-02  0.1093470E+00
         21   -1    0    0  501  502  0.00000000000E+00  0.00000000000E+00  0.10496534617E+01  0.10496534617E+01  0.00000000000E+00 0. -1.
         13   -1    0    0    0    0 -0.00000000000E+00 -0.00000000000E+00 -0.10000000000E+04  0.10000000000E+04  0.00000000000E+00 0.  1.
    9000005    2    1    2  501    0 -0.21772661028E+02 -0.23761521858E+02 -0.47104512767E+03  0.47216159461E+03  0.37947901536E+01 0.  0.
         13    1    3    3    0    0 -0.72854079049E+01 -0.97204747921E+01 -0.15717677930E+03  0.15764550342E+03  0.00000000000E+00 0.  1.
          3    1    3    3  501    0 -0.14487253123E+02 -0.14041047066E+02 -0.31386834837E+03  0.31451609119E+03  0.00000000000E+00 0.  1.
         -3    1    1    2    0  502  0.21772661028E+02  0.23761521858E+02 -0.52790521887E+03  0.52888805885E+03  0.00000000000E+00 0. -1.
<mgrwt>
<rscale>  1 0.30000000E+03</rscale>
<asrwt>0</asrwt>
<pdfrwt beam="1">  1       21 0.38169297E-02 0.30000000E+03</pdfrwt>
<pdfrwt beam="2">0</pdfrwt>
<totfact> 0.45494989E+04</totfact>
</mgrwt>
</event>
<event>
 6    1  0.1273846E-001  0.3000000E+03  0.7818608E-02  0.1093470E+00
         21   -1    0    0  501  502  0.00000000000E+00  0.00000000000E+00  0.22133519442E+01  0.22133519442E+01  0.00000000000E+00 0. -1.
         13   -1    0    0    0    0 -0.00000000000E+00 -0.00000000000E+00 -0.10000000000E+04  0.10000000000E+04  0.00000000000E+00 0.  1.
    9000005    2    1    2  501    0 -0.32868424468E+02 -0.22978536645E+02 -0.76035182379E+03  0.76141542370E+03  0.31945315393E+01 0.  0.
         13    1    3    3    0    0 -0.84425410345E+01 -0.61861683041E+01 -0.22574075685E+03  0.22598326150E+03  0.00000000000E+00 0.  1.
          1    1    3    3  501    0 -0.24425883434E+02 -0.16792368340E+02 -0.53461106694E+03  0.53543216220E+03  0.00000000000E+00 0.  1.
         -1    1    1    2    0  502  0.32868424468E+02  0.22978536645E+02 -0.23743482426E+03  0.24079792824E+03  0.00000000000E+00 0. -1.
<mgrwt>
<rscale>  1 0.30000000E+03</rscale>
<asrwt>0</asrwt>
<pdfrwt beam="1">  1       21 0.80485695E-02 0.30000000E+03</pdfrwt>
<pdfrwt beam="2">0</pdfrwt>
<totfact> 0.12638759E+04</totfact>
</mgrwt>
</event>
<event>
 6    1  0.1273846E-001  0.3000000E+03  0.7818608E-02  0.1093470E+00
         21   -1    0    0  501  502  0.00000000000E+00  0.00000000000E+00  0.10271674259E+01  0.10271674259E+01  0.00000000000E+00 0. -1.
         13   -1    0    0    0    0 -0.00000000000E+00 -0.00000000000E+00 -0.10000000000E+04  0.10000000000E+04  0.00000000000E+00 0.  1.
    9000005    2    1    2  501    0  0.30614672138E+02  0.76490814998E+01 -0.58232802945E+03  0.58318909045E+03  0.27954861108E+01 0.  0.
         13    1    3    3    0    0  0.27958623324E+02  0.77287939384E+01 -0.53819381528E+03  0.53897495460E+03  0.00000000000E+00 0.  1.
          1    1    3    3  501    0  0.26560488144E+01 -0.79712438587E-01 -0.44134214167E+02  0.44214135856E+02  0.00000000000E+00 0.  1.
         -3    1    1    2    0  502 -0.30614672138E+02 -0.76490814998E+01 -0.41664480312E+03  0.41783807697E+03  0.00000000000E+00 0. -1.
<mgrwt>
<rscale>  1 0.30000000E+03</rscale>
<asrwt>0</asrwt>
<pdfrwt beam="1">  1       21 0.37351622E-02 0.30000000E+03</pdfrwt>
<pdfrwt beam="2">0</pdfrwt>
<totfact> 0.47180319E+04</totfact>
</mgrwt>
</event>
<event>
 6    1  0.1273846E-001  0.3000000E+03  0.7818608E-02  0.1093470E+00
         21   -1    0    0  501  502  0.00000000000E+00  0.00000000000E+00  0.86181770589E+01  0.86181770589E+01  0.00000000000E+00 0. -1.
         13   -1    0    0    0    0 -0.00000000000E+00 -0.00000000000E+00 -0.10000000000E+04  0.10000000000E+04  0.00000000000E+00 0.  1.
    9000005    2    1    2  501    0  0.33725297162E+02 -0.95296356859E+01 -0.96266842806E+03  0.96331179041E+03  0.33005378335E+01 0.  0.
         13    1    3    3    0    0  0.27144064108E+02 -0.62817897670E+01 -0.76004062435E+03  0.76055112370E+03  0.00000000000E+00 0.  1.
          3    1    3    3  501    0  0.65812330539E+01 -0.32478459189E+01 -0.20262780371E+03  0.20276066671E+03  0.00000000000E+00 0.  1.
         -1    1    1    2    0  502 -0.33725297162E+02  0.95296356859E+01 -0.28713394884E+02  0.45306386644E+02  0.00000000000E+00 0. -1.
<mgrwt>
<rscale>  1 0.30000000E+03</rscale>
<asrwt>0</asrwt>
<pdfrwt beam="1">  1       21 0.31338892E-01 0.30000000E+03</pdfrwt>
<pdfrwt beam="2">0</pdfrwt>
<totfact> 0.99605146E+02</totfact>
</mgrwt>
</event>
<event>
 6    1  0.1273846E-001  0.3000000E+03  0.7818608E-02  0.1093470E+00
         21   -1    0    0  501  502  0.00000000000E+00  0.00000000000E+00  0.24637604008E+01  0.24637604008E+01  0.00000000000E+00 0. -1.
         13   -1    0    0    0    0 -0.00000000000E+00 -0.00000000000E+00 -0.10000000000E+04  0.10000000000E+04  0.00000000000E+00 0.  1.
    9000005    2    1    2  501    0  0.10337119250E+02 -0.29678887259E+02 -0.88621480456E+03  0.88679114358E+03  0.58446663282E+01 0.  0.
         13    1    3    3    0    0  0.86749949602E+01 -0.22243923041E+02 -0.73051137919E+03  0.73090144533E+03  0.00000000000E+00 0.  1.
          1    1    3    3  501    0  0.16621242900E+01 -0.74349642184E+01 -0.15570342537E+03  0.15588969826E+03  0.00000000000E+00 0.  1.
         -1    1    1    2    0  502 -0.10337119250E+02  0.29678887259E+02 -0.11132143503E+03  0.11567261682E+03  0.00000000000E+00 0. -1.
<mgrwt>
<rscale>  1 0.30000000E+03</rscale>
<asrwt>0</asrwt>
<pdfrwt beam="1">  1       21 0.89591476E-02 0.30000000E+03</pdfrwt>
<pdfrwt beam="2">0</pdfrwt>
<totfact> 0.10462059E+04</totfact>
</mgrwt>
</event>
<event>
 6    1  0.1273846E-001  0.3000000E+03  0.7818608E-02  0.1093470E+00
         21   -1    0    0  501  502  0.00000000000E+00  0.00000000000E+00  0.13529714222E+01  0.13529714222E+01  0.00000000000E+00 0. -1.
         13   -1    0    0    0    0 -0.00000000000E+00 -0.00000000000E+00 -0.10000000000E+04  0.10000000000E+04  0.00000000000E+00 0.  1.
    9000005    2    1    2  501    0  0.24873685178E+02 -0.25331738036E+02 -0.62551947465E+03  0.62654025997E+03  0.42055951173E+01 0.  0.
         13    1    3    3    0    0  0.17743024326E+02 -0.15479412243E+02 -0.42662960204E+03  0.42727888369E+03  0.00000000000E+00 0.  1.
          1    1    3    3  501    0  0.71306608519E+01 -0.98523257934E+01 -0.19888987261E+03  0.19926137628E+03  0.00000000000E+00 0.  1.
         -3    1    1    2    0  502 -0.24873685178E+02  0.25331738036E+02 -0.37312755393E+03  0.37481271145E+03  0.00000000000E+00 0. -1.
<mgrwt>
<rscale>  1 0.30000000E+03</rscale>
<asrwt>0</asrwt>
<pdfrwt beam="1">  1       21 0.49199065E-02 0.30000000E+03</pdfrwt>
<pdfrwt beam="2">0</pdfrwt>
<totfact> 0.29608305E+04</totfact>
</mgrwt>
</event>
<event>
 6    1  0.1273846E-001  0.3000000E+03  0.7818608E-02  0.1093470E+00
         21   -1    0    0  501  502  0.00000000000E+00  0.00000000000E+00  0.14222802005E+01  0.14222802005E+01  0.00000000000E+00 0. -1.
         13   -1    0    0    0    0 -0.00000000000E+00 -0.00000000000E+00 -0.10000000000E+04  0.10000000000E+04  0.00000000000E+00 0.  1.
    9000005    2    1    2  501    0  0.21296072154E+02  0.21159095631E+02 -0.80169863757E+03  0.80226755885E+03  0.33616190536E+01 0.  0.
         13    1    3    3    0    0  0.27885091544E+01  0.22312131368E+01 -0.71366008835E+02  0.71455309896E+02  0.00000000000E+00 0.  1.
          3    1    3    3  501    0  0.18507562999E+02  0.18927882494E+02 -0.73033262874E+03  0.73081224896E+03  0.00000000000E+00 0.  1.
         -3    1    1    2    0  502 -0.21296072154E+02 -0.21159095631E+02 -0.19687908223E+03  0.19915472135E+03  0.00000000000E+00 0. -1.
<mgrwt>
<rscale>  1 0.30000000E+03</rscale>
<asrwt>0</asrwt>
<pdfrwt beam="1">  1       21 0.51719389E-02 0.30000000E+03</pdfrwt>
<pdfrwt beam="2">0</pdfrwt>
<totfact> 0.27190023E+04</totfact>
</mgrwt>
</event>
<event>
 6    1  0.1273846E-001  0.3000000E+03  0.7818608E-02  0.1093470E+00
         21   -1    0    0  501  502  0.00000000000E+00  0.00000000000E+00  0.68042930919E+01  0.68042930919E+01  0.00000000000E+00 0. -1.
         13   -1    0    0    0    0 -0.00000000000E+00 -0.00000000000E+00 -0.10000000000E+04  0.10000000000E+04  0.00000000000E+00 0.  1.
    9000005    2    1    2  501    0  0.70152796783E+02 -0.96686597995E+01 -0.75457303718E+03  0.75789532100E+03  0.31545647466E+01 0.  0.
         13    1    3    3    0    0  0.38773475345E+01  0.14421470103E+00 -0.38765318901E+02  0.38959011426E+02  0.00000000000E+00 0.  1.
          3    1    3    3  501    0  0.66275449248E+02 -0.98128745005E+01 -0.71580771828E+03  0.71893630957E+03  0.00000000000E+00 0.  1.
         -1    1    1    2    0  502 -0.70152796783E+02  0.96686597995E+01 -0.23862266973E+03  0.24890897209E+03  0.00000000000E+00 0. -1.
<mgrwt>
<rscale>  1 0.30000000E+03</rscale>
<asrwt>0</asrwt>
<pdfrwt beam="1">  1       21 0.24742936E-01 0.30000000E+03</pdfrwt>
<pdfrwt beam="2">0</pdfrwt>
<totfact> 0.15914437E+03</totfact>
</mgrwt>
</event>
<event>
 6    1  0.1273846E-001  0.3000000E+03  0.7818608E-02  0.1093470E+00
         21   -1    0    0  501  502  0.00000000000E+00  0.00000000000E+00  0.35238738214E+01  0.35238738214E+01  0.00000000000E+00 0. -1.
         13   -1    0    0    0    0 -0.00000000000E+00 -0.00000000000E+00 -0.10000000000E+04  0.10000000000E+04  0.00000000000E+00 0.  1.
    9000005    2    1    2  501    0  0.28094951139E+02 -0.14429450814E+02 -0.92292951452E+03  0.92348238823E+03  0.48267230659E+01 0.  0.
         13    1    3    3    0    0  0.12621326792E+02 -0.86666597075E+01 -0.40289562190E+03  0.40318642218E+03  0.00000000000E+00 0.  1.
          3    1    3    3  501    0  0.15473624347E+02 -0.57627911067E+01 -0.52003389262E+03  0.52029596605E+03  0.00000000000E+00 0.  1.
         -3    1    1    2    0  502 -0.28094951139E+02  0.14429450814E+02 -0.73546611654E+02  0.80041485594E+02  0.00000000000E+00 0. -1.
<mgrwt>
<rscale>  1 0.30000000E+03</rscale>
<asrwt>0</asrwt>
<pdfrwt beam="1">  1       21 0.12814114E-01 0.30000000E+03</pdfrwt>
<pdfrwt beam="2">0</pdfrwt>
<totfact> 0.54991987E+03</totfact>
</mgrwt>
</event>
<event>
 6    1  0.1273846E-001  0.3000000E+03  0.7818608E-02  0.1093470E+00
         21   -1    0    0  501  502  0.00000000000E+00  0.00000000000E+00  0.27726774910E+01  0.27726774910E+01  0.00000000000E+00 0. -1.
         13   -1    0    0    0    0 -0.00000000000E+00 -0.00000000000E+00 -0.10000000000E+04  0.10000000000E+04  0.00000000000E+00 0.  1.
    9000005    2    1    2  501    0  0.34784800216E+02  0.65393284650E+00 -0.87478984953E+03  0.87548817433E+03  0.34427612260E+01 0.  0.
         13    1    3    3    0    0  0.34949670749E+01  0.47178325333E+00 -0.11558069733E+03  0.11563448867E+03  0.00000000000E+00 0.  1.
          1    1    3    3  501    0  0.31289833142E+02  0.18214959316E+00 -0.75920915220E+03  0.75985368567E+03  0.00000000000E+00 0.  1.
         -1    1    1    2    0  502 -0.34784800216E+02 -0.65393284650E+00 -0.12243747298E+03  0.12728450316E+03  0.00000000000E+00 0. -1.
<mgrwt>
<rscale>  1 0.30000000E+03</rscale>
<asrwt>0</asrwt>
<pdfrwt beam="1">  1       21 0.10082485E-01 0.30000000E+03</pdfrwt>
<pdfrwt beam="2">0</pdfrwt>
<totfact> 0.84778094E+03</totfact>
</mgrwt>
</event>
<event>
 6    1  0.1273846E-001  0.3000000E+03  0.7818608E-02  0.1093470E+00
         21   -1    0    0  501  502  0.00000000000E+00  0.00000000000E+00  0.16604067220E+01  0.16604067220E+01  0.00000000000E+00 0. -1.
         13   -1    0    0    0    0 -0.00000000000E+00 -0.00000000000E+00 -0.10000000000E+04  0.10000000000E+04  0.00000000000E+00 0.  1.
    9000005    2    1    2  501    0  0.31177029545E+02 -0.12506359206E+02 -0.78201584231E+03  0.78274402674E+03  0.33192740811E+01 0.  0.
         13    1    3    3    0    0  0.28105456819E+02 -0.10479101125E+02 -0.67826967978E+03  0.67893260842E+03  0.00000000000E+00 0.  1.
          1    1    3    3  501    0  0.30715727261E+01 -0.20272580808E+01 -0.10374616253E+03  0.10381141832E+03  0.00000000000E+00 0.  1.
         -3    1    1    2    0  502 -0.31177029545E+02  0.12506359206E+02 -0.21632375097E+03  0.21891637998E+03  0.00000000000E+00 0. -1.
<mgrwt>
<rscale>  1 0.30000000E+03</rscale>
<asrwt>0</asrwt>
<pdfrwt beam="1">  1       21 0.60378554E-02 0.30000000E+03</pdfrwt>
<pdfrwt beam="2">0</pdfrwt>
<totfact> 0.20844308E+04</totfact>
</mgrwt>
</event>
<event>
 6    1  0.1273846E-001  0.3000000E+03  0.7818608E-02  0.1093470E+00
         21   -1    0    0  501  502  0.00000000000E+00  0.00000000000E+00  0.10062143090E+01  0.10062143090E+01  0.00000000000E+00 0. -1.
         13   -1    0    0    0    0 -0.00000000000E+00 -0.00000000000E+00 -0.10000000000E+04  0.10000000000E+04  0.00000000000E+00 0.  1.
    9000005    2    1    2  501    0  0.68980330829E+01 -0.30140963210E+02 -0.39825128704E+03  0.39946850958E+03  0.38654876023E+01 0.  0.
         13    1    3    3    0    0  0.38229253996E+01 -0.15490766421E+02 -0.18085904733E+03  0.18156148712E+03  0.00000000000E+00 0.  1.
          1    1    3    3  501    0  0.30751076833E+01 -0.14650196789E+02 -0.21739223971E+03  0.21790702247E+03  0.00000000000E+00 0.  1.
         -3    1    1    2    0  502 -0.68980330829E+01  0.30140963210E+02 -0.60074249865E+03  0.60153770473E+03  0.00000000000E+00 0. -1.
<mgrwt>
<rscale>  1 0.30000000E+03</rscale>
<asrwt>0</asrwt>
<pdfrwt beam="1">  1       21 0.36589688E-02 0.30000000E+03</pdfrwt>
<pdfrwt beam="2">0</pdfrwt>
<totfact> 0.48840932E+04</totfact>
</mgrwt>
</event>
<event>
 6    1  0.1273846E-001  0.3000000E+03  0.7818608E-02  0.1093470E+00
         21   -1    0    0  501  502  0.00000000000E+00  0.00000000000E+00  0.11074514846E+01  0.11074514846E+01  0.00000000000E+00 0. -1.
         13   -1    0    0    0    0 -0.00000000000E+00 -0.00000000000E+00 -0.10000000000E+04  0.10000000000E+04  0.00000000000E+00 0.  1.
    9000005    2    1    2  501    0 -0.79902397586E+01  0.30718940210E+02 -0.64766563832E+03  0.64844920379E+03  0.28449290034E+01 0.  0.
         13    1    3    3    0    0 -0.29974584455E+01  0.10683257463E+02 -0.25441632395E+03  0.25465816822E+03  0.00000000000E+00 0.  1.
          3    1    3    3  501    0 -0.49927813131E+01  0.20035682748E+02 -0.39324931436E+03  0.39379103557E+03  0.00000000000E+00 0.  1.
         -1    1    1    2    0  502  0.79902397586E+01 -0.30718940210E+02 -0.35122691020E+03  0.35265824769E+03  0.00000000000E+00 0. -1.
<mgrwt>
<rscale>  1 0.30000000E+03</rscale>
<asrwt>0</asrwt>
<pdfrwt beam="1">  1       21 0.40271048E-02 0.30000000E+03</pdfrwt>
<pdfrwt beam="2">0</pdfrwt>
<totfact> 0.41571753E+04</totfact>
</mgrwt>
</event>
<event>
 6    1  0.1273846E-001  0.3000000E+03  0.7818608E-02  0.1093470E+00
         21   -1    0    0  501  502  0.00000000000E+00  0.00000000000E+00  0.20276427000E+01  0.20276427000E+01  0.00000000000E+00 0. -1.
         13   -1    0    0    0    0 -0.00000000000E+00 -0.00000000000E+00 -0.10000000000E+04  0.10000000000E+04  0.00000000000E+00 0.  1.
    9000005    2    1    2  501    0 -0.99831026882E+00  0.41786293915E+02 -0.68304853357E+03  0.68434209733E+03  0.46600415354E+01 0.  0.
         13    1    3    3    0    0 -0.18002524616E+01  0.26771195689E+02 -0.40577122736E+03  0.40665738255E+03  0.00000000000E+00 0.  1.
          1    1    3    3  501    0  0.80194219277E+00  0.15015098226E+02 -0.27727730620E+03  0.27768471478E+03  0.00000000000E+00 0.  1.
         -3    1    1    2    0  502  0.99831026882E+00 -0.41786293915E+02 -0.31492382373E+03  0.31768554537E+03  0.00000000000E+00 0. -1.
<mgrwt>
<rscale>  1 0.30000000E+03</rscale>
<asrwt>0</asrwt>
<pdfrwt beam="1">  1       21 0.73732617E-02 0.30000000E+03</pdfrwt>
<pdfrwt beam="2">0</pdfrwt>
<totfact> 0.14737485E+04</totfact>
</mgrwt>
</event>
<event>
 6    1  0.1273846E-001  0.3000000E+03  0.7818608E-02  0.1093470E+00
         21   -1    0    0  501  502  0.00000000000E+00  0.00000000000E+00  0.12096331762E+02  0.12096331762E+02  0.00000000000E+00 0. -1.
         13   -1    0    0    0    0 -0.00000000000E+00 -0.00000000000E+00 -0.10000000000E+04  0.10000000000E+04  0.00000000000E+00 0.  1.
    9000005    2    1    2  501    0  0.28679482508E+02  0.21254749920E+02 -0.97260006516E+03  0.97325721001E+03  0.21054642067E+01 0.  0.
         13    1    3    3    0    0  0.15956871518E+02  0.11483376619E+02 -0.50791059727E+03  0.50829092507E+03  0.00000000000E+00 0.  1.
          3    1    3    3  501    0  0.12722610990E+02  0.97713733013E+01 -0.46468946789E+03  0.46496628494E+03  0.00000000000E+00 0.  1.
         -1    1    1    2    0  502 -0.28679482508E+02 -0.21254749920E+02 -0.15303603078E+02  0.38839121750E+02  0.00000000000E+00 0. -1.
<mgrwt>
<rscale>  1 0.30000000E+03</rscale>
<asrwt>0</asrwt>
<pdfrwt beam="1">  1       21 0.43986754E-01 0.30000000E+03</pdfrwt>
<pdfrwt beam="2">0</pdfrwt>
<totfact> 0.49445241E+02</totfact>
</mgrwt>
</event>
<event>
 6    1  0.1273846E-001  0.3000000E+03  0.7818608E-02  0.1093470E+00
         21   -1    0    0  501  502  0.00000000000E+00  0.00000000000E+00  0.16631971528E+01  0.16631971528E+01  0.00000000000E+00 0. -1.
         13   -1    0    0    0    0 -0.00000000000E+00 -0.00000000000E+00 -0.10000000000E+04  0.10000000000E+04  0.00000000000E+00 0.  1.
    9000005    2    1    2  501    0  0.14358633040E+02 -0.37155857243E+02 -0.60375749226E+03  0.60507832551E+03  0.31531690520E+01 0.  0.
         13    1    3    3    0    0  0.10252768950E+02 -0.23244630503E+02 -0.39847076371E+03  0.39927982876E+03  0.00000000000E+00 0.  1.
          1    1    3    3  501    0  0.41058640892E+01 -0.13911226740E+02 -0.20528672855E+03  0.20579849676E+03  0.00000000000E+00 0.  1.
         -3    1    1    2    0  502 -0.14358633040E+02  0.37155857243E+02 -0.39457931059E+03  0.39658487164E+03  0.00000000000E+00 0. -1.
<mgrwt>
<rscale>  1 0.30000000E+03</rscale>
<asrwt>0</asrwt>
<pdfrwt beam="1">  1       21 0.60480024E-02 0.30000000E+03</pdfrwt>
<pdfrwt beam="2">0</pdfrwt>
<totfact> 0.20784014E+04</totfact>
</mgrwt>
</event>
<event>
 6    1  0.1273846E-001  0.3000000E+03  0.7818608E-02  0.1093470E+00
         21   -1    0    0  501  502  0.00000000000E+00  0.00000000000E+00  0.15240023253E+01  0.15240023253E+01  0.00000000000E+00 0. -1.
         13   -1    0    0    0    0 -0.00000000000E+00 -0.00000000000E+00 -0.10000000000E+04  0.10000000000E+04  0.00000000000E+00 0.  1.
    9000005    2    1    2  501    0 -0.77093356590E+01 -0.34815066242E+02 -0.69455108424E+03  0.69551440165E+03  0.82189781708E+01 0.  0.
         13    1    3    3    0    0 -0.90153807435E+01 -0.33670230532E+02 -0.66099601100E+03  0.66191441144E+03  0.00000000000E+00 0.  1.
          1    1    3    3  501    0  0.13060450845E+01 -0.11448357096E+01 -0.33555073238E+02  0.33599990217E+02  0.00000000000E+00 0.  1.
         -1    1    1    2    0  502  0.77093356590E+01  0.34815066242E+02 -0.30392491344E+03  0.30600960067E+03  0.00000000000E+00 0. -1.
<mgrwt>
<rscale>  1 0.30000000E+03</rscale>
<asrwt>0</asrwt>
<pdfrwt beam="1">  1       21 0.55418383E-02 0.30000000E+03</pdfrwt>
<pdfrwt beam="2">0</pdfrwt>
<totfact> 0.24158098E+04</totfact>
</mgrwt>
</event>
<event>
 6    1  0.1273846E-001  0.3000000E+03  0.7818608E-02  0.1093470E+00
         21   -1    0    0  501  502  0.00000000000E+00  0.00000000000E+00  0.21107624286E+01  0.21107624286E+01  0.00000000000E+00 0. -1.
         13   -1    0    0    0    0 -0.00000000000E+00 -0.00000000000E+00 -0.10000000000E+04  0.10000000000E+04  0.00000000000E+00 0.  1.
    9000005    2    1    2  501    0 -0.25486532983E+01 -0.45823602859E+02 -0.50681230894E+03  0.50889392568E+03  0.28307055901E+01 0.  0.
         13    1    3    3    0    0 -0.11713434620E+01 -0.50231468684E+01 -0.56664742326E+02  0.56899007661E+02  0.00000000000E+00 0.  1.
          3    1    3    3  501    0 -0.13773098363E+01 -0.40800455990E+02 -0.45014756661E+03  0.45199491802E+03  0.00000000000E+00 0.  1.
         -1    1    1    2    0  502  0.25486532983E+01  0.45823602859E+02 -0.49107692863E+03  0.49321683674E+03  0.00000000000E+00 0. -1.
<mgrwt>
<rscale>  1 0.30000000E+03</rscale>
<asrwt>0</asrwt>
<pdfrwt beam="1">  1       21 0.76755159E-02 0.30000000E+03</pdfrwt>
<pdfrwt beam="2">0</pdfrwt>
<totfact> 0.13736397E+04</totfact>
</mgrwt>
</event>
<event>
 6    1  0.1273846E-001  0.3000000E+03  0.7818608E-02  0.1093470E+00
         21   -1    0    0  501  502  0.00000000000E+00  0.00000000000E+00  0.28786484749E+01  0.28786484749E+01  0.00000000000E+00 0. -1.
         13   -1    0    0    0    0 -0.00000000000E+00 -0.00000000000E+00 -0.10000000000E+04  0.10000000000E+04  0.00000000000E+00 0.  1.
    9000005    2    1    2  501    0  0.26593367949E+02 -0.44076128713E+02 -0.63856746264E+03  0.64064833007E+03  0.34592095237E+01 0.  0.
         13    1    3    3    0    0  0.21556929399E+02 -0.32899279193E+02 -0.48475960327E+03  0.48635268760E+03  0.00000000000E+00 0.  1.
          1    1    3    3  501    0  0.50364385505E+01 -0.11176849519E+02 -0.15380785938E+03  0.15429564247E+03  0.00000000000E+00 0.  1.
         -3    1    1    2    0  502 -0.26593367949E+02  0.44076128713E+02 -0.35855388888E+03  0.36223031841E+03  0.00000000000E+00 0. -1.
<mgrwt>
<rscale>  1 0.30000000E+03</rscale>
<asrwt>0</asrwt>
<pdfrwt beam="1">  1       21 0.10467835E-01 0.30000000E+03</pdfrwt>
<pdfrwt beam="2">0</pdfrwt>
<totfact> 0.79273423E+03</totfact>
</mgrwt>
</event>
<event>
 6    1  0.1273846E-001  0.3000000E+03  0.7818608E-02  0.1093470E+00
         21   -1    0    0  501  502  0.00000000000E+00  0.00000000000E+00  0.55385647712E+01  0.55385647712E+01  0.00000000000E+00 0. -1.
         13   -1    0    0    0    0 -0.00000000000E+00 -0.00000000000E+00 -0.10000000000E+04  0.10000000000E+04  0.00000000000E+00 0.  1.
    9000005    2    1    2  501    0  0.30374984626E+02  0.13689640690E+02 -0.94676732526E+03  0.94735975352E+03  0.34768446092E+01 0.  0.
         13    1    3    3    0    0  0.87673520140E+01  0.31009730677E+01 -0.22732218383E+03  0.22751232441E+03  0.00000000000E+00 0.  1.
          1    1    3    3  501    0  0.21607632612E+02  0.10588667623E+02 -0.71944514143E+03  0.71984742911E+03  0.00000000000E+00 0.  1.
         -1    1    1    2    0  502 -0.30374984626E+02 -0.13689640690E+02 -0.47694109965E+02  0.58178811251E+02  0.00000000000E+00 0. -1.
<mgrwt>
<rscale>  1 0.30000000E+03</rscale>
<asrwt>0</asrwt>
<pdfrwt beam="1">  1       21 0.20140278E-01 0.30000000E+03</pdfrwt>
<pdfrwt beam="2">0</pdfrwt>
<totfact> 0.23674096E+03</totfact>
</mgrwt>
</event>
<event>
 6    1  0.1273846E-001  0.3000000E+03  0.7818608E-02  0.1093470E+00
         21   -1    0    0  501  502  0.00000000000E+00  0.00000000000E+00  0.92553066511E+00  0.92553066511E+00  0.00000000000E+00 0. -1.
         13   -1    0    0    0    0 -0.00000000000E+00 -0.00000000000E+00 -0.10000000000E+04  0.10000000000E+04  0.00000000000E+00 0.  1.
    9000005    2    1    2  501    0  0.21680877669E+02 -0.20968012163E+02 -0.55208721140E+03  0.55292181780E+03  0.35397189218E+01 0.  0.
         13    1    3    3    0    0  0.91235133732E+01 -0.86279218165E+01 -0.19878987101E+03  0.19918607468E+03  0.00000000000E+00 0.  1.
          3    1    3    3  501    0  0.12557364296E+02 -0.12340090347E+02 -0.35329734039E+03  0.35373574311E+03  0.00000000000E+00 0.  1.
         -1    1    1    2    0  502 -0.21680877669E+02  0.20968012163E+02 -0.44698725793E+03  0.44800371287E+03  0.00000000000E+00 0. -1.
<mgrwt>
<rscale>  1 0.30000000E+03</rscale>
<asrwt>0</asrwt>
<pdfrwt beam="1">  1       21 0.33655732E-02 0.30000000E+03</pdfrwt>
<pdfrwt beam="2">0</pdfrwt>
<totfact> 0.56178061E+04</totfact>
</mgrwt>
</event>
<event>
 6    1  0.1273846E-001  0.3000000E+03  0.7818608E-02  0.1093470E+00
         21   -1    0    0  501  502  0.00000000000E+00  0.00000000000E+00  0.12615573280E+01  0.12615573280E+01  0.00000000000E+00 0. -1.
         13   -1    0    0    0    0 -0.00000000000E+00 -0.00000000000E+00 -0.10000000000E+04  0.10000000000E+04  0.00000000000E+00 0.  1.
    9000005    2    1    2  501    0  0.13983993978E+02 -0.30509027207E+02 -0.66099314105E+03  0.66185289274E+03  0.33115383687E+01 0.  0.
         13    1    3    3    0    0  0.10934813896E+02 -0.24705469158E+02 -0.55499473188E+03  0.55565194391E+03  0.00000000000E+00 0.  1.
          3    1    3    3  501    0  0.30491800825E+01 -0.58035580484E+01 -0.10599840917E+03  0.10620094883E+03  0.00000000000E+00 0.  1.
         -3    1    1    2    0  502 -0.13983993978E+02  0.30509027207E+02 -0.33774530162E+03  0.33940866459E+03  0.00000000000E+00 0. -1.
<mgrwt>
<rscale>  1 0.30000000E+03</rscale>
<asrwt>0</asrwt>
<pdfrwt beam="1">  1       21 0.45874909E-02 0.30000000E+03</pdfrwt>
<pdfrwt beam="2">0</pdfrwt>
<totfact> 0.33349711E+04</totfact>
</mgrwt>
</event>
<event>
 6    1  0.1273846E-001  0.3000000E+03  0.7818608E-02  0.1093470E+00
         21   -1    0    0  501  502  0.00000000000E+00  0.00000000000E+00  0.25706259526E+01  0.25706259526E+01  0.00000000000E+00 0. -1.
         13   -1    0    0    0    0 -0.00000000000E+00 -0.00000000000E+00 -0.10000000000E+04  0.10000000000E+04  0.00000000000E+00 0.  1.
    9000005    2    1    2  501    0  0.69179529513E+01 -0.38546442962E+02 -0.81580012870E+03  0.81676731839E+03  0.67317200305E+01 0.  0.
         13    1    3    3    0    0  0.62587162021E-01 -0.19396505497E+01 -0.19396390657E+02  0.19493232978E+02  0.00000000000E+00 0.  1.
          3    1    3    3  501    0  0.68553657893E+01 -0.36606792413E+02 -0.79640373805E+03  0.79727408541E+03  0.00000000000E+00 0.  1.
         -3    1    1    2    0  502 -0.69179529513E+01  0.38546442962E+02 -0.18162924535E+03  0.18580330757E+03  0.00000000000E+00 0. -1.
<mgrwt>
<rscale>  1 0.30000000E+03</rscale>
<asrwt>0</asrwt>
<pdfrwt beam="1">  1       21 0.93477504E-02 0.30000000E+03</pdfrwt>
<pdfrwt beam="2">0</pdfrwt>
<totfact> 0.97027482E+03</totfact>
</mgrwt>
</event>
<event>
 6    1  0.1273846E-001  0.3000000E+03  0.7818608E-02  0.1093470E+00
         21   -1    0    0  501  502  0.00000000000E+00  0.00000000000E+00  0.41067146174E+01  0.41067146174E+01  0.00000000000E+00 0. -1.
         13   -1    0    0    0    0 -0.00000000000E+00 -0.00000000000E+00 -0.10000000000E+04  0.10000000000E+04  0.00000000000E+00 0.  1.
    9000005    2    1    2  501    0 -0.86780737220E+01  0.33213088702E+02 -0.92183259621E+03  0.92247703922E+03  0.31834304296E+01 0.  0.
         13    1    3    3    0    0 -0.47611020812E+01  0.18682193322E+02 -0.47507164329E+03  0.47546267855E+03  0.00000000000E+00 0.  1.
          3    1    3    3  501    0 -0.39169716408E+01  0.14530895381E+02 -0.44676095292E+03  0.44701436067E+03  0.00000000000E+00 0.  1.
         -1    1    1    2    0  502  0.86780737220E+01 -0.33213088702E+02 -0.74060689173E+02  0.81629675397E+02  0.00000000000E+00 0. -1.
<mgrwt>
<rscale>  1 0.30000000E+03</rscale>
<asrwt>0</asrwt>
<pdfrwt beam="1">  1       21 0.14933539E-01 0.30000000E+03</pdfrwt>
<pdfrwt beam="2">0</pdfrwt>
<totfact> 0.41520126E+03</totfact>
</mgrwt>
</event>
<event>
 6    1  0.1273846E-001  0.3000000E+03  0.7818608E-02  0.1093470E+00
         21   -1    0    0  501  502  0.00000000000E+00  0.00000000000E+00  0.10447774883E+02  0.10447774883E+02  0.00000000000E+00 0. -1.
         13   -1    0    0    0    0 -0.00000000000E+00 -0.00000000000E+00 -0.10000000000E+04  0.10000000000E+04  0.00000000000E+00 0.  1.
    9000005    2    1    2  501    0  0.21028262839E+02  0.45317651934E+02 -0.93551806914E+03  0.93685723590E+03  0.33978472508E+01 0.  0.
         13    1    3    3    0    0  0.77691088721E+01  0.13625791631E+02 -0.27715750245E+03  0.27760097697E+03  0.00000000000E+00 0.  1.
          3    1    3    3  501    0  0.13259153967E+02  0.31691860303E+02 -0.65836056669E+03  0.65925625894E+03  0.00000000000E+00 0.  1.
         -3    1    1    2    0  502 -0.21028262839E+02 -0.45317651934E+02 -0.54034155978E+02  0.73590538978E+02  0.00000000000E+00 0. -1.
<mgrwt>
<rscale>  1 0.30000000E+03</rscale>
<asrwt>0</asrwt>
<pdfrwt beam="1">  1       21 0.37991989E-01 0.30000000E+03</pdfrwt>
<pdfrwt beam="2">0</pdfrwt>
<totfact> 0.67225530E+02</totfact>
</mgrwt>
</event>
<event>
 6    1  0.1273846E-001  0.3000000E+03  0.7818608E-02  0.1093470E+00
         21   -1    0    0  501  502  0.00000000000E+00  0.00000000000E+00  0.28719070705E+01  0.28719070705E+01  0.00000000000E+00 0. -1.
         13   -1    0    0    0    0 -0.00000000000E+00 -0.00000000000E+00 -0.10000000000E+04  0.10000000000E+04  0.00000000000E+00 0.  1.
    9000005    2    1    2  501    0 -0.42331768907E+02  0.47926782728E+01 -0.80244421647E+03  0.80358126460E+03  0.33436272136E+01 0.  0.
         13    1    3    3    0    0 -0.68012849858E+01 -0.33833789806E+00 -0.13821663474E+03  0.13838428404E+03  0.00000000000E+00 0.  1.
          3    1    3    3  501    0 -0.35530483921E+02  0.51310161709E+01 -0.66422758173E+03  0.66519698056E+03  0.00000000000E+00 0.  1.
         -3    1    1    2    0  502  0.42331768907E+02 -0.47926782728E+01 -0.19468387646E+03  0.19929064247E+03  0.00000000000E+00 0. -1.
<mgrwt>
<rscale>  1 0.30000000E+03</rscale>
<asrwt>0</asrwt>
<pdfrwt beam="1">  1       21 0.10443320E-01 0.30000000E+03</pdfrwt>
<pdfrwt beam="2">0</pdfrwt>
<totfact> 0.79607198E+03</totfact>
</mgrwt>
</event>
<event>
 6    1  0.1273846E-001  0.3000000E+03  0.7818608E-02  0.1093470E+00
         21   -1    0    0  501  502  0.00000000000E+00  0.00000000000E+00  0.15353070301E+02  0.15353070301E+02  0.00000000000E+00 0. -1.
         13   -1    0    0    0    0 -0.00000000000E+00 -0.00000000000E+00 -0.10000000000E+04  0.10000000000E+04  0.00000000000E+00 0.  1.
    9000005    2    1    2  501    0 -0.12739568650E+02  0.10823287711E+03 -0.73382133812E+03  0.74187522899E+03  0.29063406264E+01 0.  0.
         13    1    3    3    0    0 -0.75083162830E+01  0.51828771315E+02 -0.35518586590E+03  0.35902589834E+03  0.00000000000E+00 0.  1.
          3    1    3    3  501    0 -0.52312523665E+01  0.56404105790E+02 -0.37863547223E+03  0.38284933065E+03  0.00000000000E+00 0.  1.
         -1    1    1    2    0  502  0.12739568650E+02 -0.10823287711E+03 -0.25082559158E+03  0.27347784131E+03  0.00000000000E+00 0. -1.
<mgrwt>
<rscale>  1 0.30000000E+03</rscale>
<asrwt>0</asrwt>
<pdfrwt beam="1">  1       21 0.55829464E-01 0.30000000E+03</pdfrwt>
<pdfrwt beam="2">0</pdfrwt>
<totfact> 0.29494046E+02</totfact>
</mgrwt>
</event>
<event>
 6    1  0.1273846E-001  0.3000000E+03  0.7818608E-02  0.1093470E+00
         21   -1    0    0  501  502  0.00000000000E+00  0.00000000000E+00  0.12673496328E+01  0.12673496328E+01  0.00000000000E+00 0. -1.
         13   -1    0    0    0    0 -0.00000000000E+00 -0.00000000000E+00 -0.10000000000E+04  0.10000000000E+04  0.00000000000E+00 0.  1.
    9000005    2    1    2  501    0 -0.24111170453E+02  0.19657813233E+02 -0.73925772098E+03  0.73993419609E+03  0.57322202142E+01 0.  0.
         13    1    3    3    0    0 -0.15388869482E+02  0.15865795994E+02 -0.52842191180E+03  0.52888397372E+03  0.00000000000E+00 0.  1.
          3    1    3    3  501    0 -0.87223009710E+01  0.37920172396E+01 -0.21083580918E+03  0.21105022237E+03  0.00000000000E+00 0.  1.
         -3    1    1    2    0  502  0.24111170453E+02 -0.19657813233E+02 -0.25947492939E+03  0.26133315354E+03  0.00000000000E+00 0. -1.
<mgrwt>
<rscale>  1 0.30000000E+03</rscale>
<asrwt>0</asrwt>
<pdfrwt beam="1">  1       21 0.46085538E-02 0.30000000E+03</pdfrwt>
<pdfrwt beam="2">0</pdfrwt>
<totfact> 0.33091169E+04</totfact>
</mgrwt>
</event>
<event>
 6    1  0.1273846E-001  0.3000000E+03  0.7818608E-02  0.1093470E+00
         21   -1    0    0  501  502  0.00000000000E+00  0.00000000000E+00  0.59227431443E+01  0.59227431443E+01  0.00000000000E+00 0. -1.
         13   -1    0    0    0    0 -0.00000000000E+00 -0.00000000000E+00 -0.10000000000E+04  0.10000000000E+04  0.00000000000E+00 0.  1.
    9000005    2    1    2  501    0 -0.48134318369E+02  0.25710855854E+02 -0.85148172602E+03  0.85324187949E+03  0.47554648960E+01 0.  0.
         13    1    3    3    0    0 -0.28549646262E+02  0.17444989561E+02 -0.50061395323E+03  0.50173074465E+03  0.00000000000E+00 0.  1.
          3    1    3    3  501    0 -0.19584672107E+02  0.82658662932E+01 -0.35086777280E+03  0.35151113484E+03  0.00000000000E+00 0.  1.
         -1    1    1    2    0  502  0.48134318369E+02 -0.25710855854E+02 -0.14259553083E+03  0.15268086366E+03  0.00000000000E+00 0. -1.
<mgrwt>
<rscale>  1 0.30000000E+03</rscale>
<asrwt>0</asrwt>
<pdfrwt beam="1">  1       21 0.21537293E-01 0.30000000E+03</pdfrwt>
<pdfrwt beam="2">0</pdfrwt>
<totfact> 0.20819953E+03</totfact>
</mgrwt>
</event>
<event>
 6    1  0.1273846E-001  0.3000000E+03  0.7818608E-02  0.1093470E+00
         21   -1    0    0  501  502  0.00000000000E+00  0.00000000000E+00  0.22526600691E+01  0.22526600691E+01  0.00000000000E+00 0. -1.
         13   -1    0    0    0    0 -0.00000000000E+00 -0.00000000000E+00 -0.10000000000E+04  0.10000000000E+04  0.00000000000E+00 0.  1.
    9000005    2    1    2  501    0 -0.67407634600E+01  0.31890024668E+02 -0.86280092611E+03  0.86342562319E+03  0.39946364499E+01 0.  0.
         13    1    3    3    0    0 -0.15516055022E+01  0.16446493104E+02 -0.45188228466E+03  0.45218413705E+03  0.00000000000E+00 0.  1.
          1    1    3    3  501    0 -0.51891579578E+01  0.15443531564E+02 -0.41091864145E+03  0.41124148614E+03  0.00000000000E+00 0.  1.
         -1    1    1    2    0  502  0.67407634600E+01 -0.31890024668E+02 -0.13494641382E+03  0.13882703688E+03  0.00000000000E+00 0. -1.
<mgrwt>
<rscale>  1 0.30000000E+03</rscale>
<asrwt>0</asrwt>
<pdfrwt beam="1">  1       21 0.81915084E-02 0.30000000E+03</pdfrwt>
<pdfrwt beam="2">0</pdfrwt>
<totfact> 0.12253614E+04</totfact>
</mgrwt>
</event>
<event>
 6    1  0.1273846E-001  0.3000000E+03  0.7818608E-02  0.1093470E+00
         21   -1    0    0  501  502  0.00000000000E+00  0.00000000000E+00  0.11476194955E+01  0.11476194955E+01  0.00000000000E+00 0. -1.
         13   -1    0    0    0    0 -0.00000000000E+00 -0.00000000000E+00 -0.10000000000E+04  0.10000000000E+04  0.00000000000E+00 0.  1.
    9000005    2    1    2  501    0 -0.12105049190E+02 -0.27602954928E+02 -0.72705272212E+03  0.72768188191E+03  0.26086735226E+01 0.  0.
         13    1    3    3    0    0 -0.10755817957E+01 -0.46458910653E+01 -0.12337611742E+03  0.12346824502E+03  0.00000000000E+00 0.  1.
          3    1    3    3  501    0 -0.11029467394E+02 -0.22957063863E+02 -0.60367660470E+03  0.60421363688E+03  0.00000000000E+00 0.  1.
         -3    1    1    2    0  502  0.12105049190E+02  0.27602954928E+02 -0.27179965838E+03  0.27346573759E+03  0.00000000000E+00 0. -1.
<mgrwt>
<rscale>  1 0.30000000E+03</rscale>
<asrwt>0</asrwt>
<pdfrwt beam="1">  1       21 0.41731706E-02 0.30000000E+03</pdfrwt>
<pdfrwt beam="2">0</pdfrwt>
<totfact> 0.39147730E+04</totfact>
</mgrwt>
</event>
<event>
 6    1  0.1273846E-001  0.3000000E+03  0.7818608E-02  0.1093470E+00
         21   -1    0    0  501  502  0.00000000000E+00  0.00000000000E+00  0.21133575848E+01  0.21133575848E+01  0.00000000000E+00 0. -1.
         13   -1    0    0    0    0 -0.00000000000E+00 -0.00000000000E+00 -0.10000000000E+04  0.10000000000E+04  0.00000000000E+00 0.  1.
    9000005    2    1    2  501    0  0.13514490628E+02  0.43140921322E+02 -0.58729563563E+03  0.58904102082E+03  0.30626828293E+01 0.  0.
         13    1    3    3    0    0  0.43660273277E+00  0.25031269379E+01 -0.25779018287E+02  0.25903938895E+02  0.00000000000E+00 0.  1.
          1    1    3    3  501    0  0.13077887895E+02  0.40637794385E+02 -0.56151661735E+03  0.56313708193E+03  0.00000000000E+00 0.  1.
         -3    1    1    2    0  502 -0.13514490628E+02 -0.43140921322E+02 -0.41059100678E+03  0.41307233676E+03  0.00000000000E+00 0. -1.
<mgrwt>
<rscale>  1 0.30000000E+03</rscale>
<asrwt>0</asrwt>
<pdfrwt beam="1">  1       21 0.76849529E-02 0.30000000E+03</pdfrwt>
<pdfrwt beam="2">0</pdfrwt>
<totfact> 0.13706845E+04</totfact>
</mgrwt>
</event>
<event>
 6    1  0.1273846E-001  0.3000000E+03  0.7818608E-02  0.1093470E+00
         21   -1    0    0  501  502  0.00000000000E+00  0.00000000000E+00  0.11105742811E+01  0.11105742811E+01  0.00000000000E+00 0. -1.
         13   -1    0    0    0    0 -0.00000000000E+00 -0.00000000000E+00 -0.10000000000E+04  0.10000000000E+04  0.00000000000E+00 0.  1.
    9000005    2    1    2  501    0  0.16374351697E+01 -0.31874838303E+02 -0.64219311938E+03  0.64298916824E+03  0.20931749081E+01 0.  0.
         13    1    3    3    0    0  0.89938650183E+00 -0.10750101678E+02 -0.19874360094E+03  0.19903615877E+03  0.00000000000E+00 0.  1.
          1    1    3    3  501    0  0.73804866791E+00 -0.21124736624E+02 -0.44344951844E+03  0.44395300947E+03  0.00000000000E+00 0.  1.
         -3    1    1    2    0  502 -0.16374351697E+01  0.31874838303E+02 -0.35669630634E+03  0.35812140604E+03  0.00000000000E+00 0. -1.
<mgrwt>
<rscale>  1 0.30000000E+03</rscale>
<asrwt>0</asrwt>
<pdfrwt beam="1">  1       21 0.40384604E-02 0.30000000E+03</pdfrwt>
<pdfrwt beam="2">0</pdfrwt>
<totfact> 0.41375006E+04</totfact>
</mgrwt>
</event>
<event>
 6    1  0.1273846E-001  0.3000000E+03  0.7818608E-02  0.1093470E+00
         21   -1    0    0  501  502  0.00000000000E+00  0.00000000000E+00  0.11020394294E+01  0.11020394294E+01  0.00000000000E+00 0. -1.
         13   -1    0    0    0    0 -0.00000000000E+00 -0.00000000000E+00 -0.10000000000E+04  0.10000000000E+04  0.00000000000E+00 0.  1.
    9000005    2    1    2  501    0 -0.30258054122E+02  0.12554970474E+02 -0.42673877366E+03  0.42800578898E+03  0.31300679276E+01 0.  0.
         13    1    3    3    0    0 -0.62209576957E+01  0.36115471956E+01 -0.82558843236E+02  0.82871624723E+02  0.00000000000E+00 0.  1.
          1    1    3    3  501    0 -0.24037096426E+02  0.89434232786E+01 -0.34417993043E+03  0.34513416425E+03  0.00000000000E+00 0.  1.
         -1    1    1    2    0  502  0.30258054122E+02 -0.12554970474E+02 -0.57215918691E+03  0.57309625045E+03  0.00000000000E+00 0. -1.
<mgrwt>
<rscale>  1 0.30000000E+03</rscale>
<asrwt>0</asrwt>
<pdfrwt beam="1">  1       21 0.40074246E-02 0.30000000E+03</pdfrwt>
<pdfrwt beam="2">0</pdfrwt>
<totfact> 0.41916213E+04</totfact>
</mgrwt>
</event>
<event>
 6    1  0.1273846E-001  0.3000000E+03  0.7818608E-02  0.1093470E+00
         21   -1    0    0  501  502  0.00000000000E+00  0.00000000000E+00  0.43076257815E+01  0.43076257815E+01  0.00000000000E+00 0. -1.
         13   -1    0    0    0    0 -0.00000000000E+00 -0.00000000000E+00 -0.10000000000E+04  0.10000000000E+04  0.00000000000E+00 0.  1.
    9000005    2    1    2  501    0 -0.25230024265E+02  0.42125657529E+02 -0.83033237219E+03  0.83181108837E+03  0.68347120740E+01 0.  0.
         13    1    3    3    0    0 -0.23881466695E+02  0.35750876574E+02 -0.73487835504E+03  0.73613493759E+03  0.00000000000E+00 0.  1.
          3    1    3    3  501    0 -0.13485575699E+01  0.63747809549E+01 -0.95454017149E+02  0.95676150788E+02  0.00000000000E+00 0.  1.
         -3    1    1    2    0  502  0.25230024265E+02 -0.42125657529E+02 -0.16536000203E+03  0.17249653741E+03  0.00000000000E+00 0. -1.
<mgrwt>
<rscale>  1 0.30000000E+03</rscale>
<asrwt>0</asrwt>
<pdfrwt beam="1">  1       21 0.15664127E-01 0.30000000E+03</pdfrwt>
<pdfrwt beam="2">0</pdfrwt>
<totfact> 0.37998872E+03</totfact>
</mgrwt>
</event>
<event>
 6    1  0.1273846E-001  0.3000000E+03  0.7818608E-02  0.1093470E+00
         21   -1    0    0  501  502  0.00000000000E+00  0.00000000000E+00  0.27896140938E+01  0.27896140938E+01  0.00000000000E+00 0. -1.
         13   -1    0    0    0    0 -0.00000000000E+00 -0.00000000000E+00 -0.10000000000E+04  0.10000000000E+04  0.00000000000E+00 0.  1.
    9000005    2    1    2  501    0 -0.31127394496E-01 -0.46102048806E+02 -0.25550519909E+03  0.25965302906E+03  0.33747388776E+01 0.  0.
         13    1    3    3    0    0  0.41643737143E+00 -0.37115345996E+02 -0.21238313927E+03  0.21560222674E+03  0.00000000000E+00 0.  1.
          1    1    3    3  501    0 -0.44756476592E+00 -0.89867028093E+01 -0.43122059824E+02  0.44050802320E+02  0.00000000000E+00 0.  1.
         -3    1    1    2    0  502  0.31127394496E-01  0.46102048806E+02 -0.74170518682E+03  0.74313658504E+03  0.00000000000E+00 0. -1.
<mgrwt>
<rscale>  1 0.30000000E+03</rscale>
<asrwt>0</asrwt>
<pdfrwt beam="1">  1       21 0.10144073E-01 0.30000000E+03</pdfrwt>
<pdfrwt beam="2">0</pdfrwt>
<totfact> 0.83859957E+03</totfact>
</mgrwt>
</event>
<event>
 6    1  0.1273846E-001  0.3000000E+03  0.7818608E-02  0.1093470E+00
         21   -1    0    0  501  502  0.00000000000E+00  0.00000000000E+00  0.15553649197E+01  0.15553649197E+01  0.00000000000E+00 0. -1.
         13   -1    0    0    0    0 -0.00000000000E+00 -0.00000000000E+00 -0.10000000000E+04  0.10000000000E+04  0.00000000000E+00 0.  1.
    9000005    2    1    2  501    0 -0.36745864602E+02 -0.13500845605E+02 -0.55528588355E+03  0.55667087378E+03  0.27418696887E+01 0.  0.
         13    1    3    3    0    0 -0.31676379658E+02 -0.11068776894E+02 -0.46357541833E+03  0.46478820911E+03  0.00000000000E+00 0.  1.
          1    1    3    3  501    0 -0.50694849437E+01 -0.24320687110E+01 -0.91710465221E+02  0.91882664670E+02  0.00000000000E+00 0.  1.
         -3    1    1    2    0  502  0.36745864602E+02  0.13500845605E+02 -0.44315875153E+03  0.44488449114E+03  0.00000000000E+00 0. -1.
<mgrwt>
<rscale>  1 0.30000000E+03</rscale>
<asrwt>0</asrwt>
<pdfrwt beam="1">  1       21 0.56558844E-02 0.30000000E+03</pdfrwt>
<pdfrwt beam="2">0</pdfrwt>
<totfact> 0.23327751E+04</totfact>
</mgrwt>
</event>
<event>
 6    1  0.1273846E-001  0.3000000E+03  0.7818608E-02  0.1093470E+00
         21   -1    0    0  501  502  0.00000000000E+00  0.00000000000E+00  0.12528719500E+01  0.12528719500E+01  0.00000000000E+00 0. -1.
         13   -1    0    0    0    0 -0.00000000000E+00 -0.00000000000E+00 -0.10000000000E+04  0.10000000000E+04  0.00000000000E+00 0.  1.
    9000005    2    1    2  501    0  0.29461677282E+02 -0.77257879098E+01 -0.24765970586E+03  0.24954814667E+03  0.33569890736E+01 0.  0.
         13    1    3    3    0    0  0.32766067527E+01 -0.19919455740E+01 -0.31990748684E+02  0.32219745504E+02  0.00000000000E+00 0.  1.
          1    1    3    3  501    0  0.26185070530E+02 -0.57338423358E+01 -0.21566895717E+03  0.21732840117E+03  0.00000000000E+00 0.  1.
         -1    1    1    2    0  502 -0.29461677282E+02  0.77257879098E+01 -0.75108742219E+03  0.75170472528E+03  0.00000000000E+00 0. -1.
<mgrwt>
<rscale>  1 0.30000000E+03</rscale>
<asrwt>0</asrwt>
<pdfrwt beam="1">  1       21 0.45559076E-02 0.30000000E+03</pdfrwt>
<pdfrwt beam="2">0</pdfrwt>
<totfact> 0.33743372E+04</totfact>
</mgrwt>
</event>
<event>
 6    1  0.1273846E-001  0.3000000E+03  0.7818608E-02  0.1093470E+00
         21   -1    0    0  501  502  0.00000000000E+00  0.00000000000E+00  0.29685083189E+01  0.29685083189E+01  0.00000000000E+00 0. -1.
         13   -1    0    0    0    0 -0.00000000000E+00 -0.00000000000E+00 -0.10000000000E+04  0.10000000000E+04  0.00000000000E+00 0.  1.
    9000005    2    1    2  501    0 -0.16386626344E+02  0.40725504404E+02 -0.79536419831E+03  0.79657862134E+03  0.24907407159E+01 0.  0.
         13    1    3    3    0    0  0.48704134743E-01  0.82708073185E-01 -0.77204011215E+00  0.77798370991E+00  0.00000000000E+00 0.  1.
          3    1    3    3  501    0 -0.16435330478E+02  0.40642796331E+02 -0.79459215820E+03  0.79580063763E+03  0.00000000000E+00 0.  1.
         -3    1    1    2    0  502  0.16386626344E+02 -0.40725504404E+02 -0.20166729337E+03  0.20638988698E+03  0.00000000000E+00 0. -1.
<mgrwt>
<rscale>  1 0.30000000E+03</rscale>
<asrwt>0</asrwt>
<pdfrwt beam="1">  1       21 0.10794598E-01 0.30000000E+03</pdfrwt>
<pdfrwt beam="2">0</pdfrwt>
<totfact> 0.75019746E+03</totfact>
</mgrwt>
</event>
<event>
 6    1  0.1273846E-001  0.3000000E+03  0.7818608E-02  0.1093470E+00
         21   -1    0    0  501  502  0.00000000000E+00  0.00000000000E+00  0.12865577295E+01  0.12865577295E+01  0.00000000000E+00 0. -1.
         13   -1    0    0    0    0 -0.00000000000E+00 -0.00000000000E+00 -0.10000000000E+04  0.10000000000E+04  0.00000000000E+00 0.  1.
    9000005    2    1    2  501    0 -0.31423610941E+02  0.14446956291E+02 -0.63074710644E+03  0.63169843268E+03  0.21999321666E+01 0.  0.
         13    1    3    3    0    0 -0.28642709220E+02  0.13527800749E+02 -0.56714064745E+03  0.56802457709E+03  0.00000000000E+00 0.  1.
          3    1    3    3  501    0 -0.27809017207E+01  0.91915554158E+00 -0.63606458986E+02  0.63673855593E+02  0.00000000000E+00 0.  1.
         -1    1    1    2    0  502  0.31423610941E+02 -0.14446956291E+02 -0.36796633583E+03  0.36958812505E+03  0.00000000000E+00 0. -1.
<mgrwt>
<rscale>  1 0.30000000E+03</rscale>
<asrwt>0</asrwt>
<pdfrwt beam="1">  1       21 0.46784016E-02 0.30000000E+03</pdfrwt>
<pdfrwt beam="2">0</pdfrwt>
<totfact> 0.32255929E+04</totfact>
</mgrwt>
</event>
<event>
 6    1  0.1273846E-001  0.3000000E+03  0.7818608E-02  0.1093470E+00
         21   -1    0    0  501  502  0.00000000000E+00  0.00000000000E+00  0.12146233789E+01  0.12146233789E+01  0.00000000000E+00 0. -1.
         13   -1    0    0    0    0 -0.00000000000E+00 -0.00000000000E+00 -0.10000000000E+04  0.10000000000E+04  0.00000000000E+00 0.  1.
    9000005    2    1    2  501    0  0.70048801273E+01  0.31388951589E+02 -0.69042592978E+03  0.69118255555E+03  0.33205351295E+01 0.  0.
         13    1    3    3    0    0  0.59324131986E+01  0.24760206946E+02 -0.57203721180E+03  0.57260355662E+03  0.00000000000E+00 0.  1.
          3    1    3    3  501    0  0.10724669287E+01  0.66287446434E+01 -0.11838871798E+03  0.11857899893E+03  0.00000000000E+00 0.  1.
         -1    1    1    2    0  502 -0.70048801273E+01 -0.31388951589E+02 -0.30835944684E+03  0.31003206783E+03  0.00000000000E+00 0. -1.
<mgrwt>
<rscale>  1 0.30000000E+03</rscale>
<asrwt>0</asrwt>
<pdfrwt beam="1">  1       21 0.44168216E-02 0.30000000E+03</pdfrwt>
<pdfrwt beam="2">0</pdfrwt>
<totfact> 0.35565736E+04</totfact>
</mgrwt>
</event>
<event>
 6    1  0.1273846E-001  0.3000000E+03  0.7818608E-02  0.1093470E+00
         21   -1    0    0  501  502  0.00000000000E+00  0.00000000000E+00  0.16240649545E+01  0.16240649545E+01  0.00000000000E+00 0. -1.
         13   -1    0    0    0    0 -0.00000000000E+00 -0.00000000000E+00 -0.10000000000E+04  0.10000000000E+04  0.00000000000E+00 0.  1.
    9000005    2    1    2  501    0  0.23455597753E+02 -0.28245288434E+02 -0.70460757328E+03  0.70557033375E+03  0.31148294340E+01 0.  0.
         13    1    3    3    0    0  0.85600430368E+01 -0.12676883831E+02 -0.29742932297E+03  0.29782239654E+03  0.00000000000E+00 0.  1.
          1    1    3    3  501    0  0.14895554716E+02 -0.15568404603E+02 -0.40717825031E+03  0.40774793721E+03  0.00000000000E+00 0.  1.
         -3    1    1    2    0  502 -0.23455597753E+02  0.28245288434E+02 -0.29376836177E+03  0.29605373120E+03  0.00000000000E+00 0. -1.
<mgrwt>
<rscale>  1 0.30000000E+03</rscale>
<asrwt>0</asrwt>
<pdfrwt beam="1">  1       21 0.59057032E-02 0.30000000E+03</pdfrwt>
<pdfrwt beam="2">0</pdfrwt>
<totfact> 0.21655098E+04</totfact>
</mgrwt>
</event>
<event>
 6    1  0.1273846E-001  0.3000000E+03  0.7818608E-02  0.1093470E+00
         21   -1    0    0  501  502  0.00000000000E+00  0.00000000000E+00  0.28837198890E+01  0.28837198890E+01  0.00000000000E+00 0. -1.
         13   -1    0    0    0    0 -0.00000000000E+00 -0.00000000000E+00 -0.10000000000E+04  0.10000000000E+04  0.00000000000E+00 0.  1.
    9000005    2    1    2  501    0  0.16732291492E+02 -0.27915651369E+02 -0.89723913496E+03  0.89783755245E+03  0.38667968227E+01 0.  0.
         13    1    3    3    0    0  0.85217127753E+01 -0.15699409575E+02 -0.53981256187E+03  0.54010803827E+03  0.00000000000E+00 0.  1.
          1    1    3    3  501    0  0.82105787164E+01 -0.12216241793E+02 -0.35742657309E+03  0.35772951418E+03  0.00000000000E+00 0.  1.
         -1    1    1    2    0  502 -0.16732291492E+02  0.27915651369E+02 -0.99877145155E+02  0.10504616744E+03  0.00000000000E+00 0. -1.
<mgrwt>
<rscale>  1 0.30000000E+03</rscale>
<asrwt>0</asrwt>
<pdfrwt beam="1">  1       21 0.10486276E-01 0.30000000E+03</pdfrwt>
<pdfrwt beam="2">0</pdfrwt>
<totfact> 0.79023729E+03</totfact>
</mgrwt>
</event>
<event>
 6    1  0.1273846E-001  0.3000000E+03  0.7818608E-02  0.1093470E+00
         21   -1    0    0  501  502  0.00000000000E+00  0.00000000000E+00  0.24272740426E+01  0.24272740426E+01  0.00000000000E+00 0. -1.
         13   -1    0    0    0    0 -0.00000000000E+00 -0.00000000000E+00 -0.10000000000E+04  0.10000000000E+04  0.00000000000E+00 0.  1.
    9000005    2    1    2  501    0  0.42615266468E+02  0.15673466965E+02 -0.69218745873E+03  0.69368485722E+03  0.36721406940E+01 0.  0.
         13    1    3    3    0    0  0.38209881810E+02  0.14438843949E+02 -0.60488317297E+03  0.60626077576E+03  0.00000000000E+00 0.  1.
          1    1    3    3  501    0  0.44053846577E+01  0.12346230158E+01 -0.87304285762E+02  0.87424081467E+02  0.00000000000E+00 0.  1.
         -3    1    1    2    0  502 -0.42615266468E+02 -0.15673466965E+02 -0.30538526723E+03  0.30874241682E+03  0.00000000000E+00 0. -1.
<mgrwt>
<rscale>  1 0.30000000E+03</rscale>
<asrwt>0</asrwt>
<pdfrwt beam="1">  1       21 0.88264697E-02 0.30000000E+03</pdfrwt>
<pdfrwt beam="2">0</pdfrwt>
<totfact> 0.10741987E+04</totfact>
</mgrwt>
</event>
<event>
 6    1  0.1273846E-001  0.3000000E+03  0.7818608E-02  0.1093470E+00
         21   -1    0    0  501  502  0.00000000000E+00  0.00000000000E+00  0.21550308664E+01  0.21550308664E+01  0.00000000000E+00 0. -1.
         13   -1    0    0    0    0 -0.00000000000E+00 -0.00000000000E+00 -0.10000000000E+04  0.10000000000E+04  0.00000000000E+00 0.  1.
    9000005    2    1    2  501    0 -0.30258727000E+01 -0.43158863058E+02 -0.67958750050E+03  0.68097025585E+03  0.30781716082E+01 0.  0.
         13    1    3    3    0    0 -0.32921767927E+01 -0.37686092727E+02 -0.58040426284E+03  0.58163578667E+03  0.00000000000E+00 0.  1.
          3    1    3    3  501    0  0.26630409266E+00 -0.54727703302E+01 -0.99183237666E+02  0.99334469178E+02  0.00000000000E+00 0.  1.
         -1    1    1    2    0  502  0.30258727000E+01  0.43158863058E+02 -0.31825746863E+03  0.32118477502E+03  0.00000000000E+00 0. -1.
<mgrwt>
<rscale>  1 0.30000000E+03</rscale>
<asrwt>0</asrwt>
<pdfrwt beam="1">  1       21 0.78364924E-02 0.30000000E+03</pdfrwt>
<pdfrwt beam="2">0</pdfrwt>
<totfact> 0.13245424E+04</totfact>
</mgrwt>
</event>
<event>
 6    1  0.1273846E-001  0.3000000E+03  0.7818608E-02  0.1093470E+00
         21   -1    0    0  501  502  0.00000000000E+00  0.00000000000E+00  0.61145681718E+01  0.61145681718E+01  0.00000000000E+00 0. -1.
         13   -1    0    0    0    0 -0.00000000000E+00 -0.00000000000E+00 -0.10000000000E+04  0.10000000000E+04  0.00000000000E+00 0.  1.
    9000005    2    1    2  501    0 -0.16161218039E+02 -0.37834365924E+02 -0.92470261501E+03  0.92562303845E+03  0.32340218105E+01 0.  0.
         13    1    3    3    0    0 -0.70538913792E+01 -0.16413183842E+02 -0.36595931898E+03  0.36639510523E+03  0.00000000000E+00 0.  1.
          3    1    3    3  501    0 -0.91073266601E+01 -0.21421182082E+02 -0.55874329603E+03  0.55922793323E+03  0.00000000000E+00 0.  1.
         -3    1    1    2    0  502  0.16161218039E+02  0.37834365924E+02 -0.69182816818E+02  0.80491529717E+02  0.00000000000E+00 0. -1.
<mgrwt>
<rscale>  1 0.30000000E+03</rscale>
<asrwt>0</asrwt>
<pdfrwt beam="1">  1       21 0.22234840E-01 0.30000000E+03</pdfrwt>
<pdfrwt beam="2">0</pdfrwt>
<totfact> 0.19581273E+03</totfact>
</mgrwt>
</event>
<event>
 6    1  0.1273846E-001  0.3000000E+03  0.7818608E-02  0.1093470E+00
         21   -1    0    0  501  502  0.00000000000E+00  0.00000000000E+00  0.60471341561E+01  0.60471341561E+01  0.00000000000E+00 0. -1.
         13   -1    0    0    0    0 -0.00000000000E+00 -0.00000000000E+00 -0.10000000000E+04  0.10000000000E+04  0.00000000000E+00 0.  1.
    9000005    2    1    2  501    0 -0.25892137653E+02  0.71819723742E+02 -0.59153650529E+03  0.59645294138E+03  0.34926616064E+01 0.  0.
         13    1    3    3    0    0 -0.11162430225E+02  0.27458024004E+02 -0.23912202677E+03  0.24095204215E+03  0.00000000000E+00 0.  1.
          1    1    3    3  501    0 -0.14729707428E+02  0.44361699737E+02 -0.35241447852E+03  0.35550089923E+03  0.00000000000E+00 0.  1.
         -1    1    1    2    0  502  0.25892137653E+02 -0.71819723742E+02 -0.40241636056E+03  0.40959419278E+03  0.00000000000E+00 0. -1.
<mgrwt>
<rscale>  1 0.30000000E+03</rscale>
<asrwt>0</asrwt>
<pdfrwt beam="1">  1       21 0.21989625E-01 0.30000000E+03</pdfrwt>
<pdfrwt beam="2">0</pdfrwt>
<totfact> 0.20004091E+03</totfact>
</mgrwt>
</event>
<event>
 6    1  0.1273846E-001  0.3000000E+03  0.7818608E-02  0.1093470E+00
         21   -1    0    0  501  502  0.00000000000E+00  0.00000000000E+00  0.26630260075E+01  0.26630260075E+01  0.00000000000E+00 0. -1.
         13   -1    0    0    0    0 -0.00000000000E+00 -0.00000000000E+00 -0.10000000000E+04  0.10000000000E+04  0.00000000000E+00 0.  1.
    9000005    2    1    2  501    0 -0.47713584759E+02 -0.82972904136E+01 -0.67090774861E+03  0.67266079816E+03  0.31481806073E+01 0.  0.
         13    1    3    3    0    0 -0.27786423019E+02 -0.63810312162E+01 -0.39787066231E+03  0.39889079557E+03  0.00000000000E+00 0.  1.
          1    1    3    3  501    0 -0.19927161741E+02 -0.19162591975E+01 -0.27303708630E+03  0.27377000259E+03  0.00000000000E+00 0.  1.
         -3    1    1    2    0  502  0.47713584759E+02  0.82972904136E+01 -0.32642922538E+03  0.33000222785E+03  0.00000000000E+00 0. -1.
<mgrwt>
<rscale>  1 0.30000000E+03</rscale>
<asrwt>0</asrwt>
<pdfrwt beam="1">  1       21 0.96837514E-02 0.30000000E+03</pdfrwt>
<pdfrwt beam="2">0</pdfrwt>
<totfact> 0.91111838E+03</totfact>
</mgrwt>
</event>
<event>
 6    1  0.1273846E-001  0.3000000E+03  0.7818608E-02  0.1093470E+00
         21   -1    0    0  501  502  0.00000000000E+00  0.00000000000E+00  0.23085186533E+01  0.23085186533E+01  0.00000000000E+00 0. -1.
         13   -1    0    0    0    0 -0.00000000000E+00 -0.00000000000E+00 -0.10000000000E+04  0.10000000000E+04  0.00000000000E+00 0.  1.
    9000005    2    1    2  501    0 -0.34836697978E+02  0.10516354327E+02 -0.82556377248E+03  0.82637632321E+03  0.42539268365E+01 0.  0.
         13    1    3    3    0    0 -0.27289403454E+02  0.89616285991E+01 -0.61220097147E+03  0.61287441764E+03  0.00000000000E+00 0.  1.
          3    1    3    3  501    0 -0.75472945242E+01  0.15547257280E+01 -0.21336280102E+03  0.21350190558E+03  0.00000000000E+00 0.  1.
         -1    1    1    2    0  502  0.34836697978E+02 -0.10516354327E+02 -0.17212770886E+03  0.17593219544E+03  0.00000000000E+00 0. -1.
<mgrwt>
<rscale>  1 0.30000000E+03</rscale>
<asrwt>0</asrwt>
<pdfrwt beam="1">  1       21 0.83946310E-02 0.30000000E+03</pdfrwt>
<pdfrwt beam="2">0</pdfrwt>
<totfact> 0.11736486E+04</totfact>
</mgrwt>
</event>
<event>
 6    1  0.1273846E-001  0.3000000E+03  0.7818608E-02  0.1093470E+00
         21   -1    0    0  501  502  0.00000000000E+00  0.00000000000E+00  0.14888716952E+01  0.14888716952E+01  0.00000000000E+00 0. -1.
         13   -1    0    0    0    0 -0.00000000000E+00 -0.00000000000E+00 -0.10000000000E+04  0.10000000000E+04  0.00000000000E+00 0.  1.
    9000005    2    1    2  501    0 -0.29275985034E+02  0.11536867405E+02 -0.78832364234E+03  0.78895896353E+03  0.34494130507E+01 0.  0.
         13    1    3    3    0    0 -0.19209472192E+02  0.88860864197E+01 -0.50125601236E+03  0.50170265724E+03  0.00000000000E+00 0.  1.
          3    1    3    3  501    0 -0.10066512842E+02  0.26507809853E+01 -0.28706762998E+03  0.28725630629E+03  0.00000000000E+00 0.  1.
         -1    1    1    2    0  502  0.29275985034E+02 -0.11536867405E+02 -0.21018748596E+03  0.21252990817E+03  0.00000000000E+00 0. -1.
<mgrwt>
<rscale>  1 0.30000000E+03</rscale>
<asrwt>0</asrwt>
<pdfrwt beam="1">  1       21 0.54140903E-02 0.30000000E+03</pdfrwt>
<pdfrwt beam="2">0</pdfrwt>
<totfact> 0.25143428E+04</totfact>
</mgrwt>
</event>
<event>
 6    1  0.1273846E-001  0.3000000E+03  0.7818608E-02  0.1093470E+00
         21   -1    0    0  501  502  0.00000000000E+00  0.00000000000E+00  0.32106066954E+01  0.32106066954E+01  0.00000000000E+00 0. -1.
         13   -1    0    0    0    0 -0.00000000000E+00 -0.00000000000E+00 -0.10000000000E+04  0.10000000000E+04  0.00000000000E+00 0.  1.
    9000005    2    1    2  501    0 -0.39390849367E+02  0.83128893794E+01 -0.85133123400E+03  0.85228407075E+03  0.15887508448E+01 0.  0.
         13    1    3    3    0    0 -0.17267619402E+02  0.31548104585E+01 -0.38437889209E+03  0.38477949034E+03  0.00000000000E+00 0.  1.
          1    1    3    3  501    0 -0.22123229965E+02  0.51580789209E+01 -0.46695234192E+03  0.46750458041E+03  0.00000000000E+00 0.  1.
         -1    1    1    2    0  502  0.39390849367E+02 -0.83128893794E+01 -0.14545815930E+03  0.15092653594E+03  0.00000000000E+00 0. -1.
<mgrwt>
<rscale>  1 0.30000000E+03</rscale>
<asrwt>0</asrwt>
<pdfrwt beam="1">  1       21 0.11674958E-01 0.30000000E+03</pdfrwt>
<pdfrwt beam="2">0</pdfrwt>
<totfact> 0.65132987E+03</totfact>
</mgrwt>
</event>
<event>
 6    1  0.1273846E-001  0.3000000E+03  0.7818608E-02  0.1093470E+00
         21   -1    0    0  501  502  0.00000000000E+00  0.00000000000E+00  0.62077146305E+01  0.62077146305E+01  0.00000000000E+00 0. -1.
         13   -1    0    0    0    0 -0.00000000000E+00 -0.00000000000E+00 -0.10000000000E+04  0.10000000000E+04  0.00000000000E+00 0.  1.
    9000005    2    1    2  501    0  0.42013069530E+02 -0.28919772977E+02 -0.88028096008E+03  0.88176386284E+03  0.33896673235E+01 0.  0.
         13    1    3    3    0    0  0.95652089074E+01 -0.65925619721E+01 -0.22609565490E+03  0.22639390508E+03  0.00000000000E+00 0.  1.
          1    1    3    3  501    0  0.32447860622E+02 -0.22327211004E+02 -0.65418530518E+03  0.65536995776E+03  0.00000000000E+00 0.  1.
         -1    1    1    2    0  502 -0.42013069530E+02  0.28919772977E+02 -0.11351132529E+03  0.12444385179E+03  0.00000000000E+00 0. -1.
<mgrwt>
<rscale>  1 0.30000000E+03</rscale>
<asrwt>0</asrwt>
<pdfrwt beam="1">  1       21 0.22573555E-01 0.30000000E+03</pdfrwt>
<pdfrwt beam="2">0</pdfrwt>
<totfact> 0.19018424E+03</totfact>
</mgrwt>
</event>
<event>
 6    1  0.1273846E-001  0.3000000E+03  0.7818608E-02  0.1093470E+00
         21   -1    0    0  501  502  0.00000000000E+00  0.00000000000E+00  0.22516287767E+01  0.22516287767E+01  0.00000000000E+00 0. -1.
         13   -1    0    0    0    0 -0.00000000000E+00 -0.00000000000E+00 -0.10000000000E+04  0.10000000000E+04  0.00000000000E+00 0.  1.
    9000005    2    1    2  501    0 -0.45828819927E+02 -0.96975440385E+01 -0.42371670840E+03  0.42631181159E+03  0.34042074452E+01 0.  0.
         13    1    3    3    0    0 -0.19661924770E+02 -0.53511306631E+01 -0.17308083523E+03  0.17427622158E+03  0.00000000000E+00 0.  1.
          1    1    3    3  501    0 -0.26166895157E+02 -0.43464133754E+01 -0.25063587317E+03  0.25203559001E+03  0.00000000000E+00 0.  1.
         -1    1    1    2    0  502  0.45828819927E+02  0.96975440385E+01 -0.57403166282E+03  0.57593981718E+03  0.00000000000E+00 0. -1.
<mgrwt>
<rscale>  1 0.30000000E+03</rscale>
<asrwt>0</asrwt>
<pdfrwt beam="1">  1       21 0.81877583E-02 0.30000000E+03</pdfrwt>
<pdfrwt beam="2">0</pdfrwt>
<totfact> 0.12263488E+04</totfact>
</mgrwt>
</event>
<event>
 6    1  0.1273846E-001  0.3000000E+03  0.7818608E-02  0.1093470E+00
         21   -1    0    0  501  502  0.00000000000E+00  0.00000000000E+00  0.10846406450E+01  0.10846406450E+01  0.00000000000E+00 0. -1.
         13   -1    0    0    0    0 -0.00000000000E+00 -0.00000000000E+00 -0.10000000000E+04  0.10000000000E+04  0.00000000000E+00 0.  1.
    9000005    2    1    2  501    0  0.65425080083E+01 -0.31639273513E+02 -0.58334437234E+03  0.58425962545E+03  0.49804775463E+01 0.  0.
         13    1    3    3    0    0  0.61900416068E+01 -0.19213866990E+02 -0.37973617767E+03  0.38027234179E+03  0.00000000000E+00 0.  1.
          1    1    3    3  501    0  0.35246640152E+00 -0.12425406524E+02 -0.20360819467E+03  0.20398728366E+03  0.00000000000E+00 0.  1.
         -3    1    1    2    0  502 -0.65425080083E+01  0.31639273513E+02 -0.41557098702E+03  0.41682501519E+03  0.00000000000E+00 0. -1.
<mgrwt>
<rscale>  1 0.30000000E+03</rscale>
<asrwt>0</asrwt>
<pdfrwt beam="1">  1       21 0.39441561E-02 0.30000000E+03</pdfrwt>
<pdfrwt beam="2">0</pdfrwt>
<totfact> 0.43054376E+04</totfact>
</mgrwt>
</event>
<event>
 6    1  0.1273846E-001  0.3000000E+03  0.7818608E-02  0.1093470E+00
         21   -1    0    0  501  502  0.00000000000E+00  0.00000000000E+00  0.11213682577E+01  0.11213682577E+01  0.00000000000E+00 0. -1.
         13   -1    0    0    0    0 -0.00000000000E+00 -0.00000000000E+00 -0.10000000000E+04  0.10000000000E+04  0.00000000000E+00 0.  1.
    9000005    2    1    2  501    0 -0.29634830140E+02  0.11147932026E+02 -0.65995245932E+03  0.66071947358E+03  0.32364582916E+01 0.  0.
         13    1    3    3    0    0 -0.61838433666E+01  0.13596241949E+01 -0.15186578887E+03  0.15199771816E+03  0.00000000000E+00 0.  1.
          1    1    3    3  501    0 -0.23450986773E+02  0.97883078313E+01 -0.50808667044E+03  0.50872175541E+03  0.00000000000E+00 0.  1.
         -1    1    1    2    0  502  0.29634830140E+02 -0.11147932026E+02 -0.33892617243E+03  0.34040189468E+03  0.00000000000E+00 0. -1.
<mgrwt>
<rscale>  1 0.30000000E+03</rscale>
<asrwt>0</asrwt>
<pdfrwt beam="1">  1       21 0.40777114E-02 0.30000000E+03</pdfrwt>
<pdfrwt beam="2">0</pdfrwt>
<totfact> 0.40706029E+04</totfact>
</mgrwt>
</event>
<event>
 6    1  0.1273846E-001  0.3000000E+03  0.7818608E-02  0.1093470E+00
         21   -1    0    0  501  502  0.00000000000E+00  0.00000000000E+00  0.17243692361E+01  0.17243692361E+01  0.00000000000E+00 0. -1.
         13   -1    0    0    0    0 -0.00000000000E+00 -0.00000000000E+00 -0.10000000000E+04  0.10000000000E+04  0.00000000000E+00 0.  1.
    9000005    2    1    2  501    0  0.10879106632E+02 -0.35681375130E+02 -0.71120903473E+03  0.71224423857E+03  0.90580793402E+01 0.  0.
         13    1    3    3    0    0  0.10443360481E+02 -0.19648054592E+02 -0.38807137723E+03  0.38870876457E+03  0.00000000000E+00 0.  1.
          1    1    3    3  501    0  0.43574615152E+00 -0.16033320539E+02 -0.32313765750E+03  0.32353547400E+03  0.00000000000E+00 0.  1.
         -3    1    1    2    0  502 -0.10879106632E+02  0.35681375130E+02 -0.28706659603E+03  0.28948013066E+03  0.00000000000E+00 0. -1.
<mgrwt>
<rscale>  1 0.30000000E+03</rscale>
<asrwt>0</asrwt>
<pdfrwt beam="1">  1       21 0.62704468E-02 0.30000000E+03</pdfrwt>
<pdfrwt beam="2">0</pdfrwt>
<totfact> 0.19527452E+04</totfact>
</mgrwt>
</event>
<event>
 6    1  0.1273846E-001  0.3000000E+03  0.7818608E-02  0.1093470E+00
         21   -1    0    0  501  502  0.00000000000E+00  0.00000000000E+00  0.17012087675E+01  0.17012087675E+01  0.00000000000E+00 0. -1.
         13   -1    0    0    0    0 -0.00000000000E+00 -0.00000000000E+00 -0.10000000000E+04  0.10000000000E+04  0.00000000000E+00 0.  1.
    9000005    2    1    2  501    0  0.30555176883E+02 -0.26441740570E+02 -0.40475805839E+03  0.40678660479E+03  0.36703581311E+01 0.  0.
         13    1    3    3    0    0  0.49362396928E+01 -0.42132474093E+01 -0.79681244654E+02  0.79945097821E+02  0.00000000000E+00 0.  1.
          3    1    3    3  501    0  0.25618937190E+02 -0.22228493161E+02 -0.32507681374E+03  0.32684150697E+03  0.00000000000E+00 0.  1.
         -3    1    1    2    0  502 -0.30555176883E+02  0.26441740570E+02 -0.59354073284E+03  0.59491460398E+03  0.00000000000E+00 0. -1.
<mgrwt>
<rscale>  1 0.30000000E+03</rscale>
<asrwt>0</asrwt>
<pdfrwt beam="1">  1       21 0.61862267E-02 0.30000000E+03</pdfrwt>
<pdfrwt beam="2">0</pdfrwt>
<totfact> 0.19988967E+04</totfact>
</mgrwt>
</event>
<event>
 6    1  0.1273846E-001  0.3000000E+03  0.7818608E-02  0.1093470E+00
         21   -1    0    0  501  502  0.00000000000E+00  0.00000000000E+00  0.34762865936E+01  0.34762865936E+01  0.00000000000E+00 0. -1.
         13   -1    0    0    0    0 -0.00000000000E+00 -0.00000000000E+00 -0.10000000000E+04  0.10000000000E+04  0.00000000000E+00 0.  1.
    9000005    2    1    2  501    0  0.11653324535E+02  0.52359561740E+02 -0.70588576236E+03  0.70792977204E+03  0.35396263806E+01 0.  0.
         13    1    3    3    0    0  0.86093319009E+00  0.96599688048E+01 -0.12073716240E+03  0.12112604422E+03  0.00000000000E+00 0.  1.
          1    1    3    3  501    0  0.10792391345E+02  0.42699592935E+02 -0.58514859996E+03  0.58680372782E+03  0.00000000000E+00 0.  1.
         -3    1    1    2    0  502 -0.11653324535E+02 -0.52359561740E+02 -0.29063795105E+03  0.29554651456E+03  0.00000000000E+00 0. -1.
<mgrwt>
<rscale>  1 0.30000000E+03</rscale>
<asrwt>0</asrwt>
<pdfrwt beam="1">  1       21 0.12641069E-01 0.30000000E+03</pdfrwt>
<pdfrwt beam="2">0</pdfrwt>
<totfact> 0.56372417E+03</totfact>
</mgrwt>
</event>
<event>
 6    1  0.1273846E-001  0.3000000E+03  0.7818608E-02  0.1093470E+00
         21   -1    0    0  501  502  0.00000000000E+00  0.00000000000E+00  0.11522816905E+01  0.11522816905E+01  0.00000000000E+00 0. -1.
         13   -1    0    0    0    0 -0.00000000000E+00 -0.00000000000E+00 -0.10000000000E+04  0.10000000000E+04  0.00000000000E+00 0.  1.
    9000005    2    1    2  501    0  0.29612480724E+02 -0.13893774395E+02 -0.62794544432E+03  0.62881045913E+03  0.41444516891E+01 0.  0.
         13    1    3    3    0    0  0.22796721595E+02 -0.10094319125E+02 -0.44378714223E+03  0.44448691028E+03  0.00000000000E+00 0.  1.
          3    1    3    3  501    0  0.68157591288E+01 -0.37994552698E+01 -0.18415830209E+03  0.18432354885E+03  0.00000000000E+00 0.  1.
         -1    1    1    2    0  502 -0.29612480724E+02  0.13893774395E+02 -0.37090227399E+03  0.37234182256E+03  0.00000000000E+00 0. -1.
<mgrwt>
<rscale>  1 0.30000000E+03</rscale>
<asrwt>0</asrwt>
<pdfrwt beam="1">  1       21 0.41901241E-02 0.30000000E+03</pdfrwt>
<pdfrwt beam="2">0</pdfrwt>
<totfact> 0.38880705E+04</totfact>
</mgrwt>
</event>
<event>
 6    1  0.1273846E-001  0.3000000E+03  0.7818608E-02  0.1093470E+00
         21   -1    0    0  501  502  0.00000000000E+00  0.00000000000E+00  0.17887993003E+01  0.17887993003E+01  0.00000000000E+00 0. -1.
         13   -1    0    0    0    0 -0.00000000000E+00 -0.00000000000E+00 -0.10000000000E+04  0.10000000000E+04  0.00000000000E+00 0.  1.
    9000005    2    1    2  501    0  0.29903524801E+02 -0.28999044320E+02 -0.41917292106E+03  0.42125413655E+03  0.37342259179E+01 0.  0.
         13    1    3    3    0    0  0.53295559807E+01 -0.68715142542E+01 -0.96634000253E+02  0.97024491135E+02  0.00000000000E+00 0.  1.
          3    1    3    3  501    0  0.24573968820E+02 -0.22127530066E+02 -0.32253892081E+03  0.32422964541E+03  0.00000000000E+00 0.  1.
         -1    1    1    2    0  502 -0.29903524801E+02  0.28999044320E+02 -0.57903827964E+03  0.58053466275E+03  0.00000000000E+00 0. -1.
<mgrwt>
<rscale>  1 0.30000000E+03</rscale>
<asrwt>0</asrwt>
<pdfrwt beam="1">  1       21 0.65047384E-02 0.30000000E+03</pdfrwt>
<pdfrwt beam="2">0</pdfrwt>
<totfact> 0.18326907E+04</totfact>
</mgrwt>
</event>
<event>
 6    1  0.1273846E-001  0.3000000E+03  0.7818608E-02  0.1093470E+00
         21   -1    0    0  501  502  0.00000000000E+00  0.00000000000E+00  0.62066708969E+01  0.62066708969E+01  0.00000000000E+00 0. -1.
         13   -1    0    0    0    0 -0.00000000000E+00 -0.00000000000E+00 -0.10000000000E+04  0.10000000000E+04  0.00000000000E+00 0.  1.
    9000005    2    1    2  501    0  0.35103679135E+02 -0.94770031737E+01 -0.94318319503E+03  0.94388919703E+03  0.31929624457E+01 0.  0.
         13    1    3    3    0    0  0.22184454371E+02 -0.73978679319E+01 -0.58636860563E+03  0.58683474687E+03  0.00000000000E+00 0.  1.
          3    1    3    3  501    0  0.12919224763E+02 -0.20791352418E+01 -0.35681458940E+03  0.35705445017E+03  0.00000000000E+00 0.  1.
         -1    1    1    2    0  502 -0.35103679135E+02  0.94770031737E+01 -0.50610134071E+02  0.62317473863E+02  0.00000000000E+00 0. -1.
<mgrwt>
<rscale>  1 0.30000000E+03</rscale>
<asrwt>0</asrwt>
<pdfrwt beam="1">  1       21 0.22569760E-01 0.30000000E+03</pdfrwt>
<pdfrwt beam="2">0</pdfrwt>
<totfact> 0.19024599E+03</totfact>
</mgrwt>
</event>
<event>
 6    1  0.1273846E-001  0.3000000E+03  0.7818608E-02  0.1093470E+00
         21   -1    0    0  501  502  0.00000000000E+00  0.00000000000E+00  0.45184768986E+01  0.45184768986E+01  0.00000000000E+00 0. -1.
         13   -1    0    0    0    0 -0.00000000000E+00 -0.00000000000E+00 -0.10000000000E+04  0.10000000000E+04  0.00000000000E+00 0.  1.
    9000005    2    1    2  501    0 -0.29073572928E+02 -0.56037948066E+02 -0.66982680202E+03  0.67280094401E+03  0.27642872307E+01 0.  0.
         13    1    3    3    0    0 -0.12557665772E+02 -0.21293856083E+02 -0.26366680369E+03  0.26482316108E+03  0.00000000000E+00 0.  1.
          3    1    3    3  501    0 -0.16515907156E+02 -0.34744091983E+02 -0.40615999833E+03  0.40797778293E+03  0.00000000000E+00 0.  1.
         -1    1    1    2    0  502  0.29073572928E+02  0.56037948066E+02 -0.32565472108E+03  0.33171753289E+03  0.00000000000E+00 0. -1.
<mgrwt>
<rscale>  1 0.30000000E+03</rscale>
<asrwt>0</asrwt>
<pdfrwt beam="1">  1       21 0.16430860E-01 0.30000000E+03</pdfrwt>
<pdfrwt beam="2">0</pdfrwt>
<totfact> 0.34759898E+03</totfact>
</mgrwt>
</event>
<event>
 6    1  0.1273846E-001  0.3000000E+03  0.7818608E-02  0.1093470E+00
         21   -1    0    0  501  502  0.00000000000E+00  0.00000000000E+00  0.15626640762E+01  0.15626640762E+01  0.00000000000E+00 0. -1.
         13   -1    0    0    0    0 -0.00000000000E+00 -0.00000000000E+00 -0.10000000000E+04  0.10000000000E+04  0.00000000000E+00 0.  1.
    9000005    2    1    2  501    0 -0.20303413906E+02 -0.22211127049E+02 -0.82333709010E+03  0.82389539397E+03  0.37541287168E+01 0.  0.
         13    1    3    3    0    0 -0.81786132075E+01 -0.80050044144E+01 -0.36056299856E+03  0.36074457132E+03  0.00000000000E+00 0.  1.
          1    1    3    3  501    0 -0.12124800698E+02 -0.14206122635E+02 -0.46277409154E+03  0.46315082264E+03  0.00000000000E+00 0.  1.
         -1    1    1    2    0  502  0.20303413906E+02  0.22211127049E+02 -0.17510024582E+03  0.17766727011E+03  0.00000000000E+00 0. -1.
<mgrwt>
<rscale>  1 0.30000000E+03</rscale>
<asrwt>0</asrwt>
<pdfrwt beam="1">  1       21 0.56824268E-02 0.30000000E+03</pdfrwt>
<pdfrwt beam="2">0</pdfrwt>
<totfact> 0.23140785E+04</totfact>
</mgrwt>
</event>
<event>
 6    1  0.1273846E-001  0.3000000E+03  0.7818608E-02  0.1093470E+00
         21   -1    0    0  501  502  0.00000000000E+00  0.00000000000E+00  0.11788753121E+01  0.11788753121E+01  0.00000000000E+00 0. -1.
         13   -1    0    0    0    0 -0.00000000000E+00 -0.00000000000E+00 -0.10000000000E+04  0.10000000000E+04  0.00000000000E+00 0.  1.
    9000005    2    1    2  501    0  0.32145513061E+02  0.66215389934E+01 -0.64348648246E+03  0.64433172770E+03  0.33680007286E+01 0.  0.
         13    1    3    3    0    0  0.21346094796E+02  0.34335987137E+01 -0.44763183664E+03  0.44815366398E+03  0.00000000000E+00 0.  1.
          1    1    3    3  501    0  0.10799418266E+02  0.31879402797E+01 -0.19585464582E+03  0.19617806372E+03  0.00000000000E+00 0.  1.
         -1    1    1    2    0  502 -0.32145513061E+02 -0.66215389934E+01 -0.35533464223E+03  0.35684714761E+03  0.00000000000E+00 0. -1.
<mgrwt>
<rscale>  1 0.30000000E+03</rscale>
<asrwt>0</asrwt>
<pdfrwt beam="1">  1       21 0.42868284E-02 0.30000000E+03</pdfrwt>
<pdfrwt beam="2">0</pdfrwt>
<totfact> 0.37410322E+04</totfact>
</mgrwt>
</event>
<event>
 6    1  0.1273846E-001  0.3000000E+03  0.7818608E-02  0.1093470E+00
         21   -1    0    0  501  502  0.00000000000E+00  0.00000000000E+00  0.16682564306E+01  0.16682564306E+01  0.00000000000E+00 0. -1.
         13   -1    0    0    0    0 -0.00000000000E+00 -0.00000000000E+00 -0.10000000000E+04  0.10000000000E+04  0.00000000000E+00 0.  1.
    9000005    2    1    2  501    0 -0.32766599290E+02 -0.20415736569E+02 -0.33872700867E+03  0.34093468030E+03  0.31650431160E+01 0.  0.
         13    1    3    3    0    0 -0.16514814181E+01 -0.19022027469E+01 -0.24067524013E+02  0.24198997465E+02  0.00000000000E+00 0.  1.
          3    1    3    3  501    0 -0.31115117872E+02 -0.18513533822E+02 -0.31465948465E+03  0.31673568283E+03  0.00000000000E+00 0.  1.
         -3    1    1    2    0  502  0.32766599290E+02  0.20415736569E+02 -0.65960473490E+03  0.66073357614E+03  0.00000000000E+00 0. -1.
<mgrwt>
<rscale>  1 0.30000000E+03</rscale>
<asrwt>0</asrwt>
<pdfrwt beam="1">  1       21 0.60663998E-02 0.30000000E+03</pdfrwt>
<pdfrwt beam="2">0</pdfrwt>
<totfact> 0.20675386E+04</totfact>
</mgrwt>
</event>
<event>
 6    1  0.1273846E-001  0.3000000E+03  0.7818608E-02  0.1093470E+00
         21   -1    0    0  501  502  0.00000000000E+00  0.00000000000E+00  0.10783687654E+01  0.10783687654E+01  0.00000000000E+00 0. -1.
         13   -1    0    0    0    0 -0.00000000000E+00 -0.00000000000E+00 -0.10000000000E+04  0.10000000000E+04  0.00000000000E+00 0.  1.
    9000005    2    1    2  501    0  0.19633645269E+02 -0.26291080935E+02 -0.48572025117E+03  0.48682905427E+03  0.12902392302E+01 0.  0.
         13    1    3    3    0    0  0.78848058320E+01 -0.98279338762E+01 -0.17981278866E+03  0.18025370291E+03  0.00000000000E+00 0.  1.
          3    1    3    3  501    0  0.11748839437E+02 -0.16463147059E+02 -0.30590746251E+03  0.30657535136E+03  0.00000000000E+00 0.  1.
         -3    1    1    2    0  502 -0.19633645269E+02  0.26291080935E+02 -0.51320138006E+03  0.51424931450E+03  0.00000000000E+00 0. -1.
<mgrwt>
<rscale>  1 0.30000000E+03</rscale>
<asrwt>0</asrwt>
<pdfrwt beam="1">  1       21 0.39213492E-02 0.30000000E+03</pdfrwt>
<pdfrwt beam="2">0</pdfrwt>
<totfact> 0.43476559E+04</totfact>
</mgrwt>
</event>
<event>
 6    1  0.1273846E-001  0.3000000E+03  0.7818608E-02  0.1093470E+00
         21   -1    0    0  501  502  0.00000000000E+00  0.00000000000E+00  0.11441542761E+01  0.11441542761E+01  0.00000000000E+00 0. -1.
         13   -1    0    0    0    0 -0.00000000000E+00 -0.00000000000E+00 -0.10000000000E+04  0.10000000000E+04  0.00000000000E+00 0.  1.
    9000005    2    1    2  501    0 -0.17042973935E+02  0.28984398804E+02 -0.54309158424E+03  0.54414128735E+03  0.32731314797E+01 0.  0.
         13    1    3    3    0    0 -0.95616872207E+01  0.16932649092E+02 -0.33909736055E+03  0.33965447207E+03  0.00000000000E+00 0.  1.
          3    1    3    3  501    0 -0.74812867143E+01  0.12051749712E+02 -0.20399422369E+03  0.20448681527E+03  0.00000000000E+00 0.  1.
         -3    1    1    2    0  502  0.17042973935E+02 -0.28984398804E+02 -0.45576426149E+03  0.45700286693E+03  0.00000000000E+00 0. -1.
<mgrwt>
<rscale>  1 0.30000000E+03</rscale>
<asrwt>0</asrwt>
<pdfrwt beam="1">  1       21 0.41605698E-02 0.30000000E+03</pdfrwt>
<pdfrwt beam="2">0</pdfrwt>
<totfact> 0.39348054E+04</totfact>
</mgrwt>
</event>
<event>
 6    1  0.1273846E-001  0.3000000E+03  0.7818608E-02  0.1093470E+00
         21   -1    0    0  501  502  0.00000000000E+00  0.00000000000E+00  0.13951885764E+01  0.13951885764E+01  0.00000000000E+00 0. -1.
         13   -1    0    0    0    0 -0.00000000000E+00 -0.00000000000E+00 -0.10000000000E+04  0.10000000000E+04  0.00000000000E+00 0.  1.
    9000005    2    1    2  501    0 -0.36053085417E+02  0.54301010900E+01 -0.39785006116E+03  0.39953508778E+03  0.37820942295E+01 0.  0.
         13    1    3    3    0    0 -0.24538152746E+00  0.24707200702E+00 -0.16443289850E+01  0.16807957882E+01  0.00000000000E+00 0.  1.
          3    1    3    3  501    0 -0.35807703890E+02  0.51830290830E+01 -0.39620573218E+03  0.39785429200E+03  0.00000000000E+00 0.  1.
         -1    1    1    2    0  502  0.36053085417E+02 -0.54301010900E+01 -0.60075475026E+03  0.60186010079E+03  0.00000000000E+00 0. -1.
<mgrwt>
<rscale>  1 0.30000000E+03</rscale>
<asrwt>0</asrwt>
<pdfrwt beam="1">  1       21 0.50734237E-02 0.30000000E+03</pdfrwt>
<pdfrwt beam="2">0</pdfrwt>
<totfact> 0.28097384E+04</totfact>
</mgrwt>
</event>
<event>
 6    1  0.1273846E-001  0.3000000E+03  0.7818608E-02  0.1093470E+00
         21   -1    0    0  501  502  0.00000000000E+00  0.00000000000E+00  0.21801090733E+01  0.21801090733E+01  0.00000000000E+00 0. -1.
         13   -1    0    0    0    0 -0.00000000000E+00 -0.00000000000E+00 -0.10000000000E+04  0.10000000000E+04  0.00000000000E+00 0.  1.
    9000005    2    1    2  501    0  0.29826219489E+02 -0.19787407358E+02 -0.82036508332E+03  0.82115151022E+03  0.31285702753E+01 0.  0.
         13    1    3    3    0    0  0.27760750269E+02 -0.17402911835E+02 -0.74256660725E+03  0.74328910042E+03  0.00000000000E+00 0.  1.
          3    1    3    3  501    0  0.20654692199E+01 -0.23844955229E+01 -0.77798476062E+02  0.77862409798E+02  0.00000000000E+00 0.  1.
         -3    1    1    2    0  502 -0.29826219489E+02  0.19787407358E+02 -0.17745480761E+03  0.18102859885E+03  0.00000000000E+00 0. -1.
<mgrwt>
<rscale>  1 0.30000000E+03</rscale>
<asrwt>0</asrwt>
<pdfrwt beam="1">  1       21 0.79276861E-02 0.30000000E+03</pdfrwt>
<pdfrwt beam="2">0</pdfrwt>
<totfact> 0.12979183E+04</totfact>
</mgrwt>
</event>
<event>
 6    1  0.1273846E-001  0.3000000E+03  0.7818608E-02  0.1093470E+00
         21   -1    0    0  501  502  0.00000000000E+00  0.00000000000E+00  0.25334167718E+01  0.25334167718E+01  0.00000000000E+00 0. -1.
         13   -1    0    0    0    0 -0.00000000000E+00 -0.00000000000E+00 -0.10000000000E+04  0.10000000000E+04  0.00000000000E+00 0.  1.
    9000005    2    1    2  501    0 -0.32029293919E+02  0.14384034058E+00 -0.88527637206E+03  0.88586062714E+03  0.29831906478E+01 0.  0.
         13    1    3    3    0    0 -0.10467625067E+02  0.66009540523E-01 -0.25208921960E+03  0.25230646082E+03  0.00000000000E+00 0.  1.
          3    1    3    3  501    0 -0.21561668852E+02  0.77830800054E-01 -0.63318715246E+03  0.63355416632E+03  0.00000000000E+00 0.  1.
         -1    1    1    2    0  502  0.32029293919E+02 -0.14384034058E+00 -0.11219021117E+03  0.11667278963E+03  0.00000000000E+00 0. -1.
<mgrwt>
<rscale>  1 0.30000000E+03</rscale>
<asrwt>0</asrwt>
<pdfrwt beam="1">  1       21 0.92124441E-02 0.30000000E+03</pdfrwt>
<pdfrwt beam="2">0</pdfrwt>
<totfact> 0.99574158E+03</totfact>
</mgrwt>
</event>
<event>
 6    1  0.1273846E-001  0.3000000E+03  0.7818608E-02  0.1093470E+00
         21   -1    0    0  501  502  0.00000000000E+00  0.00000000000E+00  0.21633394036E+01  0.21633394036E+01  0.00000000000E+00 0. -1.
         13   -1    0    0    0    0 -0.00000000000E+00 -0.00000000000E+00 -0.10000000000E+04  0.10000000000E+04  0.00000000000E+00 0.  1.
    9000005    2    1    2  501    0 -0.32912597009E+02  0.26063282690E+02 -0.71337421178E+03  0.71461957138E+03  0.39789459110E+01 0.  0.
         13    1    3    3    0    0 -0.15013158059E+01  0.18923473651E+01 -0.30090604722E+02  0.30187404993E+02  0.00000000000E+00 0.  1.
          3    1    3    3  501    0 -0.31411281203E+02  0.24170935325E+02 -0.68328360706E+03  0.68443216638E+03  0.00000000000E+00 0.  1.
         -3    1    1    2    0  502  0.32912597009E+02 -0.26063282690E+02 -0.28446244881E+03  0.28754376803E+03  0.00000000000E+00 0. -1.
<mgrwt>
<rscale>  1 0.30000000E+03</rscale>
<asrwt>0</asrwt>
<pdfrwt beam="1">  1       21 0.78667053E-02 0.30000000E+03</pdfrwt>
<pdfrwt beam="2">0</pdfrwt>
<totfact> 0.13156293E+04</totfact>
</mgrwt>
</event>
<event>
 6    1  0.1273846E-001  0.3000000E+03  0.7818608E-02  0.1093470E+00
         21   -1    0    0  501  502  0.00000000000E+00  0.00000000000E+00  0.92609369384E+00  0.92609369384E+00  0.00000000000E+00 0. -1.
         13   -1    0    0    0    0 -0.00000000000E+00 -0.00000000000E+00 -0.10000000000E+04  0.10000000000E+04  0.00000000000E+00 0.  1.
    9000005    2    1    2  501    0  0.38110450573E+00 -0.30320204650E+02 -0.51752996707E+03  0.51842839892E+03  0.33582639441E+01 0.  0.
         13    1    3    3    0    0 -0.71586333437E+00 -0.18247453224E+01 -0.27970567455E+02  0.28039165457E+02  0.00000000000E+00 0.  1.
          3    1    3    3  501    0  0.10969678401E+01 -0.28495459327E+02 -0.48955939961E+03  0.49038923346E+03  0.00000000000E+00 0.  1.
         -3    1    1    2    0  502 -0.38110450573E+00  0.30320204650E+02 -0.48154393924E+03  0.48249769478E+03  0.00000000000E+00 0. -1.
<mgrwt>
<rscale>  1 0.30000000E+03</rscale>
<asrwt>0</asrwt>
<pdfrwt beam="1">  1       21 0.33676205E-02 0.30000000E+03</pdfrwt>
<pdfrwt beam="2">0</pdfrwt>
<totfact> 0.56121034E+04</totfact>
</mgrwt>
</event>
<event>
 6    1  0.1273846E-001  0.3000000E+03  0.7818608E-02  0.1093470E+00
         21   -1    0    0  501  502  0.00000000000E+00  0.00000000000E+00  0.11689524705E+01  0.11689524705E+01  0.00000000000E+00 0. -1.
         13   -1    0    0    0    0 -0.00000000000E+00 -0.00000000000E+00 -0.10000000000E+04  0.10000000000E+04  0.00000000000E+00 0.  1.
    9000005    2    1    2  501    0 -0.30186019826E+02 -0.14724585555E+00 -0.73321805822E+03  0.73384615591E+03  0.32003376124E+01 0.  0.
         13    1    3    3    0    0 -0.28807984872E+02  0.46215092105E+00 -0.68804902885E+03  0.68865200187E+03  0.00000000000E+00 0.  1.
          3    1    3    3  501    0 -0.13780349534E+01 -0.60939677660E+00 -0.45169029371E+02  0.45194154037E+02  0.00000000000E+00 0.  1.
         -3    1    1    2    0  502  0.30186019826E+02  0.14724585555E+00 -0.26561298931E+03  0.26732279656E+03  0.00000000000E+00 0. -1.
<mgrwt>
<rscale>  1 0.30000000E+03</rscale>
<asrwt>0</asrwt>
<pdfrwt beam="1">  1       21 0.42507452E-02 0.30000000E+03</pdfrwt>
<pdfrwt beam="2">0</pdfrwt>
<totfact> 0.37948699E+04</totfact>
</mgrwt>
</event>
<event>
 6    1  0.1273846E-001  0.3000000E+03  0.7818608E-02  0.1093470E+00
         21   -1    0    0  501  502  0.00000000000E+00  0.00000000000E+00  0.65619182437E+01  0.65619182437E+01  0.00000000000E+00 0. -1.
         13   -1    0    0    0    0 -0.00000000000E+00 -0.00000000000E+00 -0.10000000000E+04  0.10000000000E+04  0.00000000000E+00 0.  1.
    9000005    2    1    2  501    0 -0.50379520809E+02 -0.60718883873E+02 -0.60887479278E+03  0.61398861018E+03  0.53498759136E+01 0.  0.
         13    1    3    3    0    0 -0.27780416112E+02 -0.37450257178E+02 -0.35356160908E+03  0.35662316904E+03  0.00000000000E+00 0.  1.
          3    1    3    3  501    0 -0.22599104697E+02 -0.23268626695E+02 -0.25531318370E+03  0.25736544114E+03  0.00000000000E+00 0.  1.
         -3    1    1    2    0  502  0.50379520809E+02  0.60718883873E+02 -0.38456328897E+03  0.39257330806E+03  0.00000000000E+00 0. -1.
<mgrwt>
<rscale>  1 0.30000000E+03</rscale>
<asrwt>0</asrwt>
<pdfrwt beam="1">  1       21 0.23861571E-01 0.30000000E+03</pdfrwt>
<pdfrwt beam="2">0</pdfrwt>
<totfact> 0.17080142E+03</totfact>
</mgrwt>
</event>
<event>
 6    1  0.1273846E-001  0.3000000E+03  0.7818608E-02  0.1093470E+00
         21   -1    0    0  501  502  0.00000000000E+00  0.00000000000E+00  0.24949153618E+01  0.24949153618E+01  0.00000000000E+00 0. -1.
         13   -1    0    0    0    0 -0.00000000000E+00 -0.00000000000E+00 -0.10000000000E+04  0.10000000000E+04  0.00000000000E+00 0.  1.
    9000005    2    1    2  501    0  0.12788182771E+02 -0.31118373805E+02 -0.86904892763E+03  0.86970607894E+03  0.32763257867E+01 0.  0.
         13    1    3    3    0    0  0.10486424858E+02 -0.25157244006E+02 -0.73446408701E+03  0.73496962327E+03  0.00000000000E+00 0.  1.
          3    1    3    3  501    0  0.23017579131E+01 -0.59611297994E+01 -0.13458484062E+03  0.13473645566E+03  0.00000000000E+00 0.  1.
         -3    1    1    2    0  502 -0.12788182771E+02  0.31118373805E+02 -0.12845615701E+03  0.13278883643E+03  0.00000000000E+00 0. -1.
<mgrwt>
<rscale>  1 0.30000000E+03</rscale>
<asrwt>0</asrwt>
<pdfrwt beam="1">  1       21 0.90724386E-02 0.30000000E+03</pdfrwt>
<pdfrwt beam="2">0</pdfrwt>
<totfact> 0.10231682E+04</totfact>
</mgrwt>
</event>
<event>
 6    1  0.1273846E-001  0.3000000E+03  0.7818608E-02  0.1093470E+00
         21   -1    0    0  501  502  0.00000000000E+00  0.00000000000E+00  0.24797241062E+01  0.24797241062E+01  0.00000000000E+00 0. -1.
         13   -1    0    0    0    0 -0.00000000000E+00 -0.00000000000E+00 -0.10000000000E+04  0.10000000000E+04  0.00000000000E+00 0.  1.
    9000005    2    1    2  501    0 -0.47792540172E+02 -0.13844779225E+02 -0.51418700081E+03  0.51659202143E+03  0.17999989785E+01 0.  0.
         13    1    3    3    0    0 -0.26500329040E+02 -0.67615359154E+01 -0.28422266112E+03  0.28553547398E+03  0.00000000000E+00 0.  1.
          3    1    3    3  501    0 -0.21292211132E+02 -0.70832433098E+01 -0.22996433969E+03  0.23105654745E+03  0.00000000000E+00 0.  1.
         -3    1    1    2    0  502  0.47792540172E+02  0.13844779225E+02 -0.48333327508E+03  0.48588770267E+03  0.00000000000E+00 0. -1.
<mgrwt>
<rscale>  1 0.30000000E+03</rscale>
<asrwt>0</asrwt>
<pdfrwt beam="1">  1       21 0.90171976E-02 0.30000000E+03</pdfrwt>
<pdfrwt beam="2">0</pdfrwt>
<totfact> 0.10343046E+04</totfact>
</mgrwt>
</event>
<event>
 6    1  0.1273846E-001  0.3000000E+03  0.7818608E-02  0.1093470E+00
         21   -1    0    0  501  502  0.00000000000E+00  0.00000000000E+00  0.25537751514E+01  0.25537751514E+01  0.00000000000E+00 0. -1.
         13   -1    0    0    0    0 -0.00000000000E+00 -0.00000000000E+00 -0.10000000000E+04  0.10000000000E+04  0.00000000000E+00 0.  1.
    9000005    2    1    2  501    0  0.27697332583E+02 -0.25375667934E+02 -0.83373164171E+03  0.83458493433E+03  0.35348922843E+01 0.  0.
         13    1    3    3    0    0  0.66004603697E+00 -0.15392941583E+01 -0.33078085907E+02  0.33120459757E+02  0.00000000000E+00 0.  1.
          3    1    3    3  501    0  0.27037286546E+02 -0.23836373776E+02 -0.80065355581E+03  0.80146447458E+03  0.00000000000E+00 0.  1.
         -3    1    1    2    0  502 -0.27697332583E+02  0.25375667934E+02 -0.16371458313E+03  0.16796884082E+03  0.00000000000E+00 0. -1.
<mgrwt>
<rscale>  1 0.30000000E+03</rscale>
<asrwt>0</asrwt>
<pdfrwt beam="1">  1       21 0.92864747E-02 0.30000000E+03</pdfrwt>
<pdfrwt beam="2">0</pdfrwt>
<totfact> 0.98168493E+03</totfact>
</mgrwt>
</event>
<event>
 6    1  0.1273846E-001  0.3000000E+03  0.7818608E-02  0.1093470E+00
         21   -1    0    0  501  502  0.00000000000E+00  0.00000000000E+00  0.73218613154E+01  0.73218613154E+01  0.00000000000E+00 0. -1.
         13   -1    0    0    0    0 -0.00000000000E+00 -0.00000000000E+00 -0.10000000000E+04  0.10000000000E+04  0.00000000000E+00 0.  1.
    9000005    2    1    2  501    0  0.46278741384E+01  0.49991614340E+02 -0.89047732448E+02  0.10229783412E+03  0.38431092132E+01 0.  0.
         13    1    3    3    0    0  0.56941591910E-01  0.35878841557E-01  0.23961065085E-01  0.71440666296E-01  0.00000000000E+00 0.  1.
          3    1    3    3  501    0  0.45709325464E+01  0.49955735498E+02 -0.89071693513E+02  0.10222639345E+03  0.00000000000E+00 0.  1.
         -3    1    1    2    0  502 -0.46278741384E+01 -0.49991614340E+02 -0.90363040624E+03  0.90502402719E+03  0.00000000000E+00 0. -1.
<mgrwt>
<rscale>  1 0.30000000E+03</rscale>
<asrwt>0</asrwt>
<pdfrwt beam="1">  1       21 0.26625006E-01 0.30000000E+03</pdfrwt>
<pdfrwt beam="2">0</pdfrwt>
<totfact> 0.13779950E+03</totfact>
</mgrwt>
</event>
<event>
 6    1  0.1273846E-001  0.3000000E+03  0.7818608E-02  0.1093470E+00
         21   -1    0    0  501  502  0.00000000000E+00  0.00000000000E+00  0.24949956666E+01  0.24949956666E+01  0.00000000000E+00 0. -1.
         13   -1    0    0    0    0 -0.00000000000E+00 -0.00000000000E+00 -0.10000000000E+04  0.10000000000E+04  0.00000000000E+00 0.  1.
    9000005    2    1    2  501    0 -0.21054466486E+02  0.38358815512E+02 -0.73967279289E+03  0.74097608900E+03  0.38774528865E+01 0.  0.
         13    1    3    3    0    0 -0.92885747691E+01  0.18835787058E+02 -0.38353751773E+03  0.38411208261E+03  0.00000000000E+00 0.  1.
          3    1    3    3  501    0 -0.11765891717E+02  0.19523028454E+02 -0.35613527515E+03  0.35686400639E+03  0.00000000000E+00 0.  1.
         -3    1    1    2    0  502  0.21054466486E+02 -0.38358815512E+02 -0.25783221145E+03  0.26151890667E+03  0.00000000000E+00 0. -1.
<mgrwt>
<rscale>  1 0.30000000E+03</rscale>
<asrwt>0</asrwt>
<pdfrwt beam="1">  1       21 0.90727306E-02 0.30000000E+03</pdfrwt>
<pdfrwt beam="2">0</pdfrwt>
<totfact> 0.10231099E+04</totfact>
</mgrwt>
</event>
<event>
 6    1  0.1273846E-001  0.3000000E+03  0.7818608E-02  0.1093470E+00
         21   -1    0    0  501  502  0.00000000000E+00  0.00000000000E+00  0.65128582356E+01  0.65128582356E+01  0.00000000000E+00 0. -1.
         13   -1    0    0    0    0 -0.00000000000E+00 -0.00000000000E+00 -0.10000000000E+04  0.10000000000E+04  0.00000000000E+00 0.  1.
    9000005    2    1    2  501    0  0.73488048766E+02  0.29254356882E+02 -0.41241783796E+03  0.42008481787E+03  0.11245907075E+02 0.  0.
         13    1    3    3    0    0  0.95827344437E+01  0.30234638431E+01 -0.35768620685E+02  0.37153255022E+02  0.00000000000E+00 0.  1.
          3    1    3    3  501    0  0.63905314322E+02  0.26230893039E+02 -0.37664921728E+03  0.38293156284E+03  0.00000000000E+00 0.  1.
         -3    1    1    2    0  502 -0.73488048766E+02 -0.29254356882E+02 -0.58106930380E+03  0.58642804037E+03  0.00000000000E+00 0. -1.
<mgrwt>
<rscale>  1 0.30000000E+03</rscale>
<asrwt>0</asrwt>
<pdfrwt beam="1">  1       21 0.23683171E-01 0.30000000E+03</pdfrwt>
<pdfrwt beam="2">0</pdfrwt>
<totfact> 0.17331018E+03</totfact>
</mgrwt>
</event>
<event>
 6    1  0.1273846E-001  0.3000000E+03  0.7818608E-02  0.1093470E+00
         21   -1    0    0  501  502  0.00000000000E+00  0.00000000000E+00  0.10548359088E+01  0.10548359088E+01  0.00000000000E+00 0. -1.
         13   -1    0    0    0    0 -0.00000000000E+00 -0.00000000000E+00 -0.10000000000E+04  0.10000000000E+04  0.00000000000E+00 0.  1.
    9000005    2    1    2  501    0 -0.16138874295E+02  0.27952960387E+02 -0.45775049353E+03  0.45889849065E+03  0.32371497085E+01 0.  0.
         13    1    3    3    0    0 -0.10457636340E+02  0.14967216749E+02 -0.25312684024E+03  0.25378450895E+03  0.00000000000E+00 0.  1.
          3    1    3    3  501    0 -0.56812379548E+01  0.12985743638E+02 -0.20462365329E+03  0.20511398170E+03  0.00000000000E+00 0.  1.
         -1    1    1    2    0  502  0.16138874295E+02 -0.27952960387E+02 -0.54119467057E+03  0.54215634526E+03  0.00000000000E+00 0. -1.
<mgrwt>
<rscale>  1 0.30000000E+03</rscale>
<asrwt>0</asrwt>
<pdfrwt beam="1">  1       21 0.38357750E-02 0.30000000E+03</pdfrwt>
<pdfrwt beam="2">0</pdfrwt>
<totfact> 0.45119969E+04</totfact>
</mgrwt>
</event>
<event>
 6    1  0.1273846E-001  0.3000000E+03  0.7818608E-02  0.1093470E+00
         21   -1    0    0  501  502  0.00000000000E+00  0.00000000000E+00  0.17568158858E+01  0.17568158858E+01  0.00000000000E+00 0. -1.
         13   -1    0    0    0    0 -0.00000000000E+00 -0.00000000000E+00 -0.10000000000E+04  0.10000000000E+04  0.00000000000E+00 0.  1.
    9000005    2    1    2  501    0  0.37177493559E+02  0.16872024326E+01 -0.72877182574E+03  0.72972772615E+03  0.30278107424E+01 0.  0.
         13    1    3    3    0    0  0.28887766760E+02  0.29619354822E+00 -0.57882448910E+03  0.57954497667E+03  0.00000000000E+00 0.  1.
          1    1    3    3  501    0  0.82897267991E+01  0.13910088843E+01 -0.14994733664E+03  0.15018274948E+03  0.00000000000E+00 0.  1.
         -3    1    1    2    0  502 -0.37177493559E+02 -0.16872024326E+01 -0.26947135837E+03  0.27202908974E+03  0.00000000000E+00 0. -1.
<mgrwt>
<rscale>  1 0.30000000E+03</rscale>
<asrwt>0</asrwt>
<pdfrwt beam="1">  1       21 0.63884349E-02 0.30000000E+03</pdfrwt>
<pdfrwt beam="2">0</pdfrwt>
<totfact> 0.18908141E+04</totfact>
</mgrwt>
</event>
<event>
 6    1  0.1273846E-001  0.3000000E+03  0.7818608E-02  0.1093470E+00
         21   -1    0    0  501  502  0.00000000000E+00  0.00000000000E+00  0.29722930612E+01  0.29722930612E+01  0.00000000000E+00 0. -1.
         13   -1    0    0    0    0 -0.00000000000E+00 -0.00000000000E+00 -0.10000000000E+04  0.10000000000E+04  0.00000000000E+00 0.  1.
    9000005    2    1    2  501    0  0.27626394497E+02  0.23783818261E+02 -0.12863463678E+03  0.13381441789E+03  0.55263885104E+01 0.  0.
         13    1    3    3    0    0  0.49639937317E+01  0.18089982172E+01 -0.16944939346E+02  0.17749497957E+02  0.00000000000E+00 0.  1.
          1    1    3    3  501    0  0.22662400765E+02  0.21974820044E+02 -0.11168969744E+03  0.11606491993E+03  0.00000000000E+00 0.  1.
         -3    1    1    2    0  502 -0.27626394497E+02 -0.23783818261E+02 -0.86839307016E+03  0.86915787518E+03  0.00000000000E+00 0. -1.
<mgrwt>
<rscale>  1 0.30000000E+03</rscale>
<asrwt>0</asrwt>
<pdfrwt beam="1">  1       21 0.10808361E-01 0.30000000E+03</pdfrwt>
<pdfrwt beam="2">0</pdfrwt>
<totfact> 0.74848229E+03</totfact>
</mgrwt>
</event>
<event>
 6    1  0.1273846E-001  0.3000000E+03  0.7818608E-02  0.1093470E+00
         21   -1    0    0  501  502  0.00000000000E+00  0.00000000000E+00  0.15840167849E+01  0.15840167849E+01  0.00000000000E+00 0. -1.
         13   -1    0    0    0    0 -0.00000000000E+00 -0.00000000000E+00 -0.10000000000E+04  0.10000000000E+04  0.00000000000E+00 0.  1.
    9000005    2    1    2  501    0  0.25756728074E+02 -0.29581866826E+02 -0.42138481149E+03  0.42322126813E+03  0.35477541614E+01 0.  0.
         13    1    3    3    0    0  0.77830391462E+00 -0.20447047396E+01 -0.26506392356E+02  0.26596530040E+02  0.00000000000E+00 0.  1.
          3    1    3    3  501    0  0.24978424159E+02 -0.27537162086E+02 -0.39487841914E+03  0.39662473809E+03  0.00000000000E+00 0.  1.
         -3    1    1    2    0  502 -0.25756728074E+02  0.29581866826E+02 -0.57703117172E+03  0.57836274865E+03  0.00000000000E+00 0. -1.
<mgrwt>
<rscale>  1 0.30000000E+03</rscale>
<asrwt>0</asrwt>
<pdfrwt beam="1">  1       21 0.57600732E-02 0.30000000E+03</pdfrwt>
<pdfrwt beam="2">0</pdfrwt>
<totfact> 0.22606832E+04</totfact>
</mgrwt>
</event>
<event>
 6    1  0.1273846E-001  0.3000000E+03  0.7818608E-02  0.1093470E+00
         21   -1    0    0  501  502  0.00000000000E+00  0.00000000000E+00  0.40547753147E+01  0.40547753147E+01  0.00000000000E+00 0. -1.
         13   -1    0    0    0    0 -0.00000000000E+00 -0.00000000000E+00 -0.10000000000E+04  0.10000000000E+04  0.00000000000E+00 0.  1.
    9000005    2    1    2  501    0 -0.25046860875E+02  0.24909276781E+02 -0.91558988680E+03  0.91627779863E+03  0.35137074332E+01 0.  0.
         13    1    3    3    0    0 -0.13253572133E+02  0.15161655941E+02 -0.49354885005E+03  0.49395951289E+03  0.00000000000E+00 0.  1.
          1    1    3    3  501    0 -0.11793288742E+02  0.97476208400E+01 -0.42204103675E+03  0.42231828574E+03  0.00000000000E+00 0.  1.
         -1    1    1    2    0  502  0.25046860875E+02 -0.24909276781E+02 -0.80355337884E+02  0.87776976685E+02  0.00000000000E+00 0. -1.
<mgrwt>
<rscale>  1 0.30000000E+03</rscale>
<asrwt>0</asrwt>
<pdfrwt beam="1">  1       21 0.14744669E-01 0.30000000E+03</pdfrwt>
<pdfrwt beam="2">0</pdfrwt>
<totfact> 0.42508612E+03</totfact>
</mgrwt>
</event>
<event>
 6    1  0.1273846E-001  0.3000000E+03  0.7818608E-02  0.1093470E+00
         21   -1    0    0  501  502  0.00000000000E+00  0.00000000000E+00  0.24218468573E+01  0.24218468573E+01  0.00000000000E+00 0. -1.
         13   -1    0    0    0    0 -0.00000000000E+00 -0.00000000000E+00 -0.10000000000E+04  0.10000000000E+04  0.00000000000E+00 0.  1.
    9000005    2    1    2  501    0  0.31327523048E+02 -0.30783263975E+02 -0.72467619799E+03  0.72600820724E+03  0.18171413083E+01 0.  0.
         13    1    3    3    0    0  0.29931068888E+02 -0.29880122387E+02 -0.69582190543E+03  0.69710602829E+03  0.00000000000E+00 0.  1.
          1    1    3    3  501    0  0.13964541603E+01 -0.90314158787E+00 -0.28854292556E+02  0.28902178946E+02  0.00000000000E+00 0.  1.
         -3    1    1    2    0  502 -0.31327523048E+02  0.30783263975E+02 -0.27290195515E+03  0.27641363962E+03  0.00000000000E+00 0. -1.
<mgrwt>
<rscale>  1 0.30000000E+03</rscale>
<asrwt>0</asrwt>
<pdfrwt beam="1">  1       21 0.88067344E-02 0.30000000E+03</pdfrwt>
<pdfrwt beam="2">0</pdfrwt>
<totfact> 0.10784594E+04</totfact>
</mgrwt>
</event>
<event>
 6    1  0.1273846E-001  0.3000000E+03  0.7818608E-02  0.1093470E+00
         21   -1    0    0  501  502  0.00000000000E+00  0.00000000000E+00  0.51191971010E+01  0.51191971010E+01  0.00000000000E+00 0. -1.
         13   -1    0    0    0    0 -0.00000000000E+00 -0.00000000000E+00 -0.10000000000E+04  0.10000000000E+04  0.00000000000E+00 0.  1.
    9000005    2    1    2  501    0 -0.17382418896E+02 -0.48822416499E+02 -0.84380977649E+03  0.84540623000E+03  0.33133044066E+01 0.  0.
         13    1    3    3    0    0 -0.22099972681E+01 -0.49461100345E+01 -0.74261822938E+02  0.74459159534E+02  0.00000000000E+00 0.  1.
          3    1    3    3  501    0 -0.15172421628E+02 -0.43876306464E+02 -0.76954795355E+03  0.77094707046E+03  0.00000000000E+00 0.  1.
         -3    1    1    2    0  502  0.17382418896E+02  0.48822416499E+02 -0.15107102641E+03  0.15971296710E+03  0.00000000000E+00 0. -1.
<mgrwt>
<rscale>  1 0.30000000E+03</rscale>
<asrwt>0</asrwt>
<pdfrwt beam="1">  1       21 0.18615301E-01 0.30000000E+03</pdfrwt>
<pdfrwt beam="2">0</pdfrwt>
<totfact> 0.27495178E+03</totfact>
</mgrwt>
</event>
<event>
 6    1  0.1273846E-001  0.3000000E+03  0.7818608E-02  0.1093470E+00
         21   -1    0    0  501  502  0.00000000000E+00  0.00000000000E+00  0.20113788330E+01  0.20113788330E+01  0.00000000000E+00 0. -1.
         13   -1    0    0    0    0 -0.00000000000E+00 -0.00000000000E+00 -0.10000000000E+04  0.10000000000E+04  0.00000000000E+00 0.  1.
    9000005    2    1    2  501    0  0.10796582505E+02 -0.34177881311E+02 -0.79966320866E+03  0.80047313678E+03  0.33617932196E+01 0.  0.
         13    1    3    3    0    0  0.10084099177E+02 -0.33106748652E+02 -0.78040332314E+03  0.78117033522E+03  0.00000000000E+00 0.  1.
          3    1    3    3  501    0  0.71248332797E+00 -0.10711326585E+01 -0.19259885529E+02  0.19302801564E+02  0.00000000000E+00 0.  1.
         -3    1    1    2    0  502 -0.10796582505E+02  0.34177881311E+02 -0.19832541250E+03  0.20153824205E+03  0.00000000000E+00 0. -1.
<mgrwt>
<rscale>  1 0.30000000E+03</rscale>
<asrwt>0</asrwt>
<pdfrwt beam="1">  1       21 0.73141203E-02 0.30000000E+03</pdfrwt>
<pdfrwt beam="2">0</pdfrwt>
<totfact> 0.14946391E+04</totfact>
</mgrwt>
</event>
<event>
 6    1  0.1273846E-001  0.3000000E+03  0.7818608E-02  0.1093470E+00
         21   -1    0    0  501  502  0.00000000000E+00  0.00000000000E+00  0.16297061597E+01  0.16297061597E+01  0.00000000000E+00 0. -1.
         13   -1    0    0    0    0 -0.00000000000E+00 -0.00000000000E+00 -0.10000000000E+04  0.10000000000E+04  0.00000000000E+00 0.  1.
    9000005    2    1    2  501    0  0.36110940543E+02  0.26777722155E+01 -0.71990415306E+03  0.72081916140E+03  0.26652106193E+01 0.  0.
         13    1    3    3    0    0  0.13896212915E+02  0.21000651556E+01 -0.26435018707E+03  0.26472350937E+03  0.00000000000E+00 0.  1.
          3    1    3    3  501    0  0.22214727627E+02  0.57770705995E+00 -0.45555396599E+03  0.45609565203E+03  0.00000000000E+00 0.  1.
         -3    1    1    2    0  502 -0.36110940543E+02 -0.26777722155E+01 -0.27846614078E+03  0.28081054476E+03  0.00000000000E+00 0. -1.
<mgrwt>
<rscale>  1 0.30000000E+03</rscale>
<asrwt>0</asrwt>
<pdfrwt beam="1">  1       21 0.59262167E-02 0.30000000E+03</pdfrwt>
<pdfrwt beam="2">0</pdfrwt>
<totfact> 0.21526052E+04</totfact>
</mgrwt>
</event>
<event>
 6    1  0.1273846E-001  0.3000000E+03  0.7818608E-02  0.1093470E+00
         21   -1    0    0  501  502  0.00000000000E+00  0.00000000000E+00  0.11492923424E+01  0.11492923424E+01  0.00000000000E+00 0. -1.
         13   -1    0    0    0    0 -0.00000000000E+00 -0.00000000000E+00 -0.10000000000E+04  0.10000000000E+04  0.00000000000E+00 0.  1.
    9000005    2    1    2  501    0 -0.30283917717E+02 -0.77287114138E+01 -0.69147366713E+03  0.69218733077E+03  0.32588185090E+01 0.  0.
         13    1    3    3    0    0 -0.23821809951E+02 -0.67991692559E+01 -0.52085313208E+03  0.52144193591E+03  0.00000000000E+00 0.  1.
          1    1    3    3  501    0 -0.64621077655E+01 -0.92954215790E+00 -0.17062053505E+03  0.17074539486E+03  0.00000000000E+00 0.  1.
         -1    1    1    2    0  502  0.30283917717E+02  0.77287114138E+01 -0.30737704053E+03  0.30896196157E+03  0.00000000000E+00 0. -1.
<mgrwt>
<rscale>  1 0.30000000E+03</rscale>
<asrwt>0</asrwt>
<pdfrwt beam="1">  1       21 0.41792537E-02 0.30000000E+03</pdfrwt>
<pdfrwt beam="2">0</pdfrwt>
<totfact> 0.39051591E+04</totfact>
</mgrwt>
</event>
<event>
 6    1  0.1273846E-001  0.3000000E+03  0.7818608E-02  0.1093470E+00
         21   -1    0    0  501  502  0.00000000000E+00  0.00000000000E+00  0.17674159161E+01  0.17674159161E+01  0.00000000000E+00 0. -1.
         13   -1    0    0    0    0 -0.00000000000E+00 -0.00000000000E+00 -0.10000000000E+04  0.10000000000E+04  0.00000000000E+00 0.  1.
    9000005    2    1    2  501    0 -0.22614939621E+02 -0.28897955566E+02 -0.74287005165E+03  0.74378185372E+03  0.30008260180E+01 0.  0.
         13    1    3    3    0    0 -0.49144680982E+01 -0.52012715348E+01 -0.16567179533E+03  0.16582626146E+03  0.00000000000E+00 0.  1.
          1    1    3    3  501    0 -0.17700471522E+02 -0.23696684031E+02 -0.57719825632E+03  0.57795559226E+03  0.00000000000E+00 0.  1.
         -3    1    1    2    0  502  0.22614939621E+02  0.28897955566E+02 -0.25536253243E+03  0.25798556219E+03  0.00000000000E+00 0. -1.
<mgrwt>
<rscale>  1 0.30000000E+03</rscale>
<asrwt>0</asrwt>
<pdfrwt beam="1">  1       21 0.64269805E-02 0.30000000E+03</pdfrwt>
<pdfrwt beam="2">0</pdfrwt>
<totfact> 0.18712388E+04</totfact>
</mgrwt>
</event>
<event>
 6    1  0.1273846E-001  0.3000000E+03  0.7818608E-02  0.1093470E+00
         21   -1    0    0  501  502  0.00000000000E+00  0.00000000000E+00  0.21685132605E+01  0.21685132605E+01  0.00000000000E+00 0. -1.
         13   -1    0    0    0    0 -0.00000000000E+00 -0.00000000000E+00 -0.10000000000E+04  0.10000000000E+04  0.00000000000E+00 0.  1.
    9000005    2    1    2  501    0 -0.19744058781E+02 -0.24960339439E+02 -0.86448274386E+03  0.86507462708E+03  0.32938691213E+01 0.  0.
         13    1    3    3    0    0 -0.13319775616E+02 -0.15410652619E+02 -0.58694252291E+03  0.58729586227E+03  0.00000000000E+00 0.  1.
          3    1    3    3  501    0 -0.64242831646E+01 -0.95496868199E+01 -0.27754022095E+03  0.27777876481E+03  0.00000000000E+00 0.  1.
         -1    1    1    2    0  502  0.19744058781E+02  0.24960339439E+02 -0.13334874288E+03  0.13709388618E+03  0.00000000000E+00 0. -1.
<mgrwt>
<rscale>  1 0.30000000E+03</rscale>
<asrwt>0</asrwt>
<pdfrwt beam="1">  1       21 0.78855194E-02 0.30000000E+03</pdfrwt>
<pdfrwt beam="2">0</pdfrwt>
<totfact> 0.13101255E+04</totfact>
</mgrwt>
</event>
<event>
 6    1  0.1273846E-001  0.3000000E+03  0.7818608E-02  0.1093470E+00
         21   -1    0    0  501  502  0.00000000000E+00  0.00000000000E+00  0.20077414269E+01  0.20077414269E+01  0.00000000000E+00 0. -1.
         13   -1    0    0    0    0 -0.00000000000E+00 -0.00000000000E+00 -0.10000000000E+04  0.10000000000E+04  0.00000000000E+00 0.  1.
    9000005    2    1    2  501    0 -0.44268418224E+02  0.56538614445E+01 -0.53654692818E+03  0.53840936789E+03  0.32221568276E+01 0.  0.
         13    1    3    3    0    0 -0.38846936040E+02  0.44797112904E+01 -0.48050854430E+03  0.48209709955E+03  0.00000000000E+00 0.  1.
          3    1    3    3  501    0 -0.54214821838E+01  0.11741501541E+01 -0.56038383882E+02  0.56312268342E+02  0.00000000000E+00 0.  1.
         -3    1    1    2    0  502  0.44268418224E+02 -0.56538614445E+01 -0.46144533040E+03  0.46359837354E+03  0.00000000000E+00 0. -1.
<mgrwt>
<rscale>  1 0.30000000E+03</rscale>
<asrwt>0</asrwt>
<pdfrwt beam="1">  1       21 0.73008933E-02 0.30000000E+03</pdfrwt>
<pdfrwt beam="2">0</pdfrwt>
<totfact> 0.14993727E+04</totfact>
</mgrwt>
</event>
<event>
 6    1  0.1273846E-001  0.3000000E+03  0.7818608E-02  0.1093470E+00
         21   -1    0    0  501  502  0.00000000000E+00  0.00000000000E+00  0.10461097941E+01  0.10461097941E+01  0.00000000000E+00 0. -1.
         13   -1    0    0    0    0 -0.00000000000E+00 -0.00000000000E+00 -0.10000000000E+04  0.10000000000E+04  0.00000000000E+00 0.  1.
    9000005    2    1    2  501    0  0.25700235616E+01  0.31923019964E+02 -0.44486795434E+03  0.44603538147E+03  0.37921635455E+01 0.  0.
         13    1    3    3    0    0  0.27477260730E+01  0.13063180297E+02 -0.17348168789E+03  0.17399451920E+03  0.00000000000E+00 0.  1.
          3    1    3    3  501    0 -0.17770251134E+00  0.18859839667E+02 -0.27138626645E+03  0.27204086227E+03  0.00000000000E+00 0.  1.
         -3    1    1    2    0  502 -0.25700235616E+01 -0.31923019964E+02 -0.55408593587E+03  0.55501072832E+03  0.00000000000E+00 0. -1.
<mgrwt>
<rscale>  1 0.30000000E+03</rscale>
<asrwt>0</asrwt>
<pdfrwt beam="1">  1       21 0.38040436E-02 0.30000000E+03</pdfrwt>
<pdfrwt beam="2">0</pdfrwt>
<totfact> 0.45754247E+04</totfact>
</mgrwt>
</event>
<event>
 6    1  0.1273846E-001  0.3000000E+03  0.7818608E-02  0.1093470E+00
         21   -1    0    0  501  502  0.00000000000E+00  0.00000000000E+00  0.23775017374E+01  0.23775017374E+01  0.00000000000E+00 0. -1.
         13   -1    0    0    0    0 -0.00000000000E+00 -0.00000000000E+00 -0.10000000000E+04  0.10000000000E+04  0.00000000000E+00 0.  1.
    9000005    2    1    2  501    0  0.40708214172E+02  0.25506960311E+02 -0.58074610538E+03  0.58274231415E+03  0.38473435278E+01 0.  0.
         13    1    3    3    0    0  0.16772110150E+02  0.11696450531E+02 -0.26668946726E+03  0.26747220899E+03  0.00000000000E+00 0.  1.
          3    1    3    3  501    0  0.23936104021E+02  0.13810509780E+02 -0.31405663812E+03  0.31527010516E+03  0.00000000000E+00 0.  1.
         -1    1    1    2    0  502 -0.40708214172E+02 -0.25506960311E+02 -0.41687639288E+03  0.41963518759E+03  0.00000000000E+00 0. -1.
<mgrwt>
<rscale>  1 0.30000000E+03</rscale>
<asrwt>0</asrwt>
<pdfrwt beam="1">  1       21 0.86454791E-02 0.30000000E+03</pdfrwt>
<pdfrwt beam="2">0</pdfrwt>
<totfact> 0.11142562E+04</totfact>
</mgrwt>
</event>
<event>
 6    1  0.1273846E-001  0.3000000E+03  0.7818608E-02  0.1093470E+00
         21   -1    0    0  501  502  0.00000000000E+00  0.00000000000E+00  0.21043865100E+01  0.21043865100E+01  0.00000000000E+00 0. -1.
         13   -1    0    0    0    0 -0.00000000000E+00 -0.00000000000E+00 -0.10000000000E+04  0.10000000000E+04  0.00000000000E+00 0.  1.
    9000005    2    1    2  501    0  0.20985082778E+02  0.24336998587E+02 -0.85623970763E+03  0.85684923561E+03  0.33929979544E+01 0.  0.
         13    1    3    3    0    0  0.13430043403E+02  0.13797800412E+02 -0.47957095379E+03  0.47995733673E+03  0.00000000000E+00 0.  1.
          3    1    3    3  501    0  0.75550393756E+01  0.10539198175E+02 -0.37666875384E+03  0.37689189888E+03  0.00000000000E+00 0.  1.
         -3    1    1    2    0  502 -0.20985082778E+02 -0.24336998587E+02 -0.14165590586E+03  0.14525515090E+03  0.00000000000E+00 0. -1.
<mgrwt>
<rscale>  1 0.30000000E+03</rscale>
<asrwt>0</asrwt>
<pdfrwt beam="1">  1       21 0.76523307E-02 0.30000000E+03</pdfrwt>
<pdfrwt beam="2">0</pdfrwt>
<totfact> 0.13809419E+04</totfact>
</mgrwt>
</event>
<event>
 6    1  0.1273846E-001  0.3000000E+03  0.7818608E-02  0.1093470E+00
         21   -1    0    0  501  502  0.00000000000E+00  0.00000000000E+00  0.12138590823E+01  0.12138590823E+01  0.00000000000E+00 0. -1.
         13   -1    0    0    0    0 -0.00000000000E+00 -0.00000000000E+00 -0.10000000000E+04  0.10000000000E+04  0.00000000000E+00 0.  1.
    9000005    2    1    2  501    0 -0.10441574639E+02  0.29048293038E+02 -0.73058868035E+03  0.73124588383E+03  0.28094388428E+01 0.  0.
         13    1    3    3    0    0 -0.19636296474E+01  0.58230945003E+01 -0.12085536483E+03  0.12101150144E+03  0.00000000000E+00 0.  1.
          1    1    3    3  501    0 -0.84779449921E+01  0.23225198538E+02 -0.60973331552E+03  0.61023438239E+03  0.00000000000E+00 0.  1.
         -1    1    1    2    0  502  0.10441574639E+02 -0.29048293038E+02 -0.26819746057E+03  0.26996797526E+03  0.00000000000E+00 0. -1.
<mgrwt>
<rscale>  1 0.30000000E+03</rscale>
<asrwt>0</asrwt>
<pdfrwt beam="1">  1       21 0.44140423E-02 0.30000000E+03</pdfrwt>
<pdfrwt beam="2">0</pdfrwt>
<totfact> 0.35603688E+04</totfact>
</mgrwt>
</event>
<event>
 6    1  0.1273846E-001  0.3000000E+03  0.7818608E-02  0.1093470E+00
         21   -1    0    0  501  502  0.00000000000E+00  0.00000000000E+00  0.49142312397E+01  0.49142312397E+01  0.00000000000E+00 0. -1.
         13   -1    0    0    0    0 -0.00000000000E+00 -0.00000000000E+00 -0.10000000000E+04  0.10000000000E+04  0.00000000000E+00 0.  1.
    9000005    2    1    2  501    0 -0.53706049230E+02 -0.10174887721E+02 -0.81194586103E+03  0.81379098863E+03  0.34385839392E+01 0.  0.
         13    1    3    3    0    0 -0.11534769149E+02 -0.36298893374E+01 -0.18116588030E+03  0.18156900391E+03  0.00000000000E+00 0.  1.
          3    1    3    3  501    0 -0.42171280081E+02 -0.65449983839E+01 -0.63077998073E+03  0.63222198471E+03  0.00000000000E+00 0.  1.
         -3    1    1    2    0  502  0.53706049230E+02  0.10174887721E+02 -0.18313990773E+03  0.19112324261E+03  0.00000000000E+00 0. -1.
<mgrwt>
<rscale>  1 0.30000000E+03</rscale>
<asrwt>0</asrwt>
<pdfrwt beam="1">  1       21 0.17869969E-01 0.30000000E+03</pdfrwt>
<pdfrwt beam="2">0</pdfrwt>
<totfact> 0.29698140E+03</totfact>
</mgrwt>
</event>
<event>
 6    1  0.1273846E-001  0.3000000E+03  0.7818608E-02  0.1093470E+00
         21   -1    0    0  501  502  0.00000000000E+00  0.00000000000E+00  0.53410195030E+01  0.53410195030E+01  0.00000000000E+00 0. -1.
         13   -1    0    0    0    0 -0.00000000000E+00 -0.00000000000E+00 -0.10000000000E+04  0.10000000000E+04  0.00000000000E+00 0.  1.
    9000005    2    1    2  501    0 -0.95378259394E+01  0.70472495743E+02 -0.61232241902E+03  0.61644696064E+03  0.32814117938E+01 0.  0.
         13    1    3    3    0    0 -0.53891968448E+01  0.30874526229E+02 -0.26019572906E+03  0.26207651027E+03  0.00000000000E+00 0.  1.
          3    1    3    3  501    0 -0.41486290946E+01  0.39597969513E+02 -0.35212668996E+03  0.35437045037E+03  0.00000000000E+00 0.  1.
         -3    1    1    2    0  502  0.95378259394E+01 -0.70472495743E+02 -0.38233656148E+03  0.38889405887E+03  0.00000000000E+00 0. -1.
<mgrwt>
<rscale>  1 0.30000000E+03</rscale>
<asrwt>0</asrwt>
<pdfrwt beam="1">  1       21 0.19421930E-01 0.30000000E+03</pdfrwt>
<pdfrwt beam="2">0</pdfrwt>
<totfact> 0.25370812E+03</totfact>
</mgrwt>
</event>
<event>
 6    1  0.1273846E-001  0.3000000E+03  0.7818608E-02  0.1093470E+00
         21   -1    0    0  501  502  0.00000000000E+00  0.00000000000E+00  0.27155596929E+01  0.27155596929E+01  0.00000000000E+00 0. -1.
         13   -1    0    0    0    0 -0.00000000000E+00 -0.00000000000E+00 -0.10000000000E+04  0.10000000000E+04  0.00000000000E+00 0.  1.
    9000005    2    1    2  501    0 -0.31727610708E+02  0.20019938824E+02 -0.84637453188E+03  0.84721237743E+03  0.33948531011E+01 0.  0.
         13    1    3    3    0    0 -0.12065337322E+02  0.81855514632E+01 -0.29392251022E+03  0.29428390652E+03  0.00000000000E+00 0.  1.
          1    1    3    3  501    0 -0.19662273386E+02  0.11834387360E+02 -0.55245202165E+03  0.55292847091E+03  0.00000000000E+00 0.  1.
         -1    1    1    2    0  502  0.31727610708E+02 -0.20019938824E+02 -0.15090990843E+03  0.15550318226E+03  0.00000000000E+00 0. -1.
<mgrwt>
<rscale>  1 0.30000000E+03</rscale>
<asrwt>0</asrwt>
<pdfrwt beam="1">  1       21 0.98747833E-02 0.30000000E+03</pdfrwt>
<pdfrwt beam="2">0</pdfrwt>
<totfact> 0.87990264E+03</totfact>
</mgrwt>
</event>
<event>
 6    1  0.1273846E-001  0.3000000E+03  0.7818608E-02  0.1093470E+00
         21   -1    0    0  501  502  0.00000000000E+00  0.00000000000E+00  0.16849365708E+01  0.16849365708E+01  0.00000000000E+00 0. -1.
         13   -1    0    0    0    0 -0.00000000000E+00 -0.00000000000E+00 -0.10000000000E+04  0.10000000000E+04  0.00000000000E+00 0.  1.
    9000005    2    1    2  501    0  0.39434222194E+02 -0.10631352379E+02 -0.54299167839E+03  0.54453346441E+03  0.29406683473E+01 0.  0.
         13    1    3    3    0    0  0.15120177987E+02 -0.51104687309E+01 -0.19838776017E+03  0.19902874179E+03  0.00000000000E+00 0.  1.
          3    1    3    3  501    0  0.24314044207E+02 -0.55208836482E+01 -0.34460391822E+03  0.34550472263E+03  0.00000000000E+00 0.  1.
         -1    1    1    2    0  502 -0.39434222194E+02  0.10631352379E+02 -0.45532338504E+03  0.45715147216E+03  0.00000000000E+00 0. -1.
<mgrwt>
<rscale>  1 0.30000000E+03</rscale>
<asrwt>0</asrwt>
<pdfrwt beam="1">  1       21 0.61270550E-02 0.30000000E+03</pdfrwt>
<pdfrwt beam="2">0</pdfrwt>
<totfact> 0.20323428E+04</totfact>
</mgrwt>
</event>
<event>
 6    1  0.1273846E-001  0.3000000E+03  0.7818608E-02  0.1093470E+00
         21   -1    0    0  501  502  0.00000000000E+00  0.00000000000E+00  0.13908268885E+01  0.13908268885E+01  0.00000000000E+00 0. -1.
         13   -1    0    0    0    0 -0.00000000000E+00 -0.00000000000E+00 -0.10000000000E+04  0.10000000000E+04  0.00000000000E+00 0.  1.
    9000005    2    1    2  501    0 -0.35588551860E+02  0.56939319303E+01 -0.37573497383E+03  0.37747477964E+03  0.33871552213E+01 0.  0.
         13    1    3    3    0    0 -0.91170147459E+01  0.18621981367E+00 -0.10293584249E+03  0.10333896799E+03  0.00000000000E+00 0.  1.
          3    1    3    3  501    0 -0.26471537114E+02  0.55077121167E+01 -0.27279913134E+03  0.27413581165E+03  0.00000000000E+00 0.  1.
         -3    1    1    2    0  502  0.35588551860E+02 -0.56939319303E+01 -0.62287419928E+03  0.62391604725E+03  0.00000000000E+00 0. -1.
<mgrwt>
<rscale>  1 0.30000000E+03</rscale>
<asrwt>0</asrwt>
<pdfrwt beam="1">  1       21 0.50575630E-02 0.30000000E+03</pdfrwt>
<pdfrwt beam="2">0</pdfrwt>
<totfact> 0.28247860E+04</totfact>
</mgrwt>
</event>
<event>
 6    1  0.1273846E-001  0.3000000E+03  0.7818608E-02  0.1093470E+00
         21   -1    0    0  501  502  0.00000000000E+00  0.00000000000E+00  0.92957338820E+00  0.92957338820E+00  0.00000000000E+00 0. -1.
         13   -1    0    0    0    0 -0.00000000000E+00 -0.00000000000E+00 -0.10000000000E+04  0.10000000000E+04  0.00000000000E+00 0.  1.
    9000005    2    1    2  501    0 -0.16851111762E+02 -0.25270869300E+02 -0.51975550189E+03  0.52065322183E+03  0.33791798682E+01 0.  0.
         13    1    3    3    0    0 -0.13135549811E+02 -0.21384404933E+02 -0.41199776550E+03  0.41276142530E+03  0.00000000000E+00 0.  1.
          3    1    3    3  501    0 -0.37155619512E+01 -0.38864643670E+01 -0.10775773639E+03  0.10789179653E+03  0.00000000000E+00 0.  1.
         -1    1    1    2    0  502  0.16851111762E+02  0.25270869300E+02 -0.47931492472E+03  0.48027635155E+03  0.00000000000E+00 0. -1.
<mgrwt>
<rscale>  1 0.30000000E+03</rscale>
<asrwt>0</asrwt>
<pdfrwt beam="1">  1       21 0.33802740E-02 0.30000000E+03</pdfrwt>
<pdfrwt beam="2">0</pdfrwt>
<totfact> 0.55770583E+04</totfact>
</mgrwt>
</event>
<event>
 6    1  0.1273846E-001  0.3000000E+03  0.7818608E-02  0.1093470E+00
         21   -1    0    0  501  502  0.00000000000E+00  0.00000000000E+00  0.12908028101E+01  0.12908028101E+01  0.00000000000E+00 0. -1.
         13   -1    0    0    0    0 -0.00000000000E+00 -0.00000000000E+00 -0.10000000000E+04  0.10000000000E+04  0.00000000000E+00 0.  1.
    9000005    2    1    2  501    0 -0.21707374806E+02 -0.28058061085E+02 -0.57212395586E+03  0.57323305784E+03  0.34427914538E+01 0.  0.
         13    1    3    3    0    0 -0.82061774736E+01 -0.84275823245E+01 -0.17462586435E+03  0.17502159293E+03  0.00000000000E+00 0.  1.
          3    1    3    3  501    0 -0.13501197332E+02 -0.19630478760E+02 -0.39749809152E+03  0.39821146491E+03  0.00000000000E+00 0.  1.
         -1    1    1    2    0  502  0.21707374806E+02  0.28058061085E+02 -0.42658524133E+03  0.42805774497E+03  0.00000000000E+00 0. -1.
<mgrwt>
<rscale>  1 0.30000000E+03</rscale>
<asrwt>0</asrwt>
<pdfrwt beam="1">  1       21 0.46938383E-02 0.30000000E+03</pdfrwt>
<pdfrwt beam="2">0</pdfrwt>
<totfact> 0.32075795E+04</totfact>
</mgrwt>
</event>
<event>
 6    1  0.1273846E-001  0.3000000E+03  0.7818608E-02  0.1093470E+00
         21   -1    0    0  501  502  0.00000000000E+00  0.00000000000E+00  0.10812740213E+01  0.10812740213E+01  0.00000000000E+00 0. -1.
         13   -1    0    0    0    0 -0.00000000000E+00 -0.00000000000E+00 -0.10000000000E+04  0.10000000000E+04  0.00000000000E+00 0.  1.
    9000005    2    1    2  501    0  0.17276394653E+02  0.26376448119E+02 -0.63785784232E+03  0.63864624186E+03  0.34934808503E+01 0.  0.
         13    1    3    3    0    0  0.50642316310E+01  0.77218771232E+01 -0.22045601123E+03  0.22064932975E+03  0.00000000000E+00 0.  1.
          3    1    3    3  501    0  0.12212163022E+02  0.18654570995E+02 -0.41740183108E+03  0.41799691211E+03  0.00000000000E+00 0.  1.
         -3    1    1    2    0  502 -0.17276394653E+02 -0.26376448119E+02 -0.36106088366E+03  0.36243503216E+03  0.00000000000E+00 0. -1.
<mgrwt>
<rscale>  1 0.30000000E+03</rscale>
<asrwt>0</asrwt>
<pdfrwt beam="1">  1       21 0.39319138E-02 0.30000000E+03</pdfrwt>
<pdfrwt beam="2">0</pdfrwt>
<totfact> 0.43280194E+04</totfact>
</mgrwt>
</event>
<event>
 6    1  0.1273846E-001  0.3000000E+03  0.7818608E-02  0.1093470E+00
         21   -1    0    0  501  502  0.00000000000E+00  0.00000000000E+00  0.23583660884E+01  0.23583660884E+01  0.00000000000E+00 0. -1.
         13   -1    0    0    0    0 -0.00000000000E+00 -0.00000000000E+00 -0.10000000000E+04  0.10000000000E+04  0.00000000000E+00 0.  1.
    9000005    2    1    2  501    0  0.27693277748E+02 -0.13087311257E+02 -0.88767213910E+03  0.88820283561E+03  0.20628410844E+01 0.  0.
         13    1    3    3    0    0  0.11310447879E+02 -0.43589672859E+01 -0.36438199559E+03  0.36458355083E+03  0.00000000000E+00 0.  1.
          1    1    3    3  501    0  0.16382829870E+02 -0.87283439707E+01 -0.52329014351E+03  0.52361928478E+03  0.00000000000E+00 0.  1.
         -1    1    1    2    0  502 -0.27693277748E+02  0.13087311257E+02 -0.10996949481E+03  0.11415553047E+03  0.00000000000E+00 0. -1.
<mgrwt>
<rscale>  1 0.30000000E+03</rscale>
<asrwt>0</asrwt>
<pdfrwt beam="1">  1       21 0.85758948E-02 0.30000000E+03</pdfrwt>
<pdfrwt beam="2">0</pdfrwt>
<totfact> 0.11302639E+04</totfact>
</mgrwt>
</event>
<event>
 6    1  0.1273846E-001  0.3000000E+03  0.7818608E-02  0.1093470E+00
         21   -1    0    0  501  502  0.00000000000E+00  0.00000000000E+00  0.11435561073E+01  0.11435561073E+01  0.00000000000E+00 0. -1.
         13   -1    0    0    0    0 -0.00000000000E+00 -0.00000000000E+00 -0.10000000000E+04  0.10000000000E+04  0.00000000000E+00 0.  1.
    9000005    2    1    2  501    0  0.20252599834E+02 -0.26218326435E+02 -0.40545872671E+03  0.40682174160E+03  0.30954696589E+01 0.  0.
         13    1    3    3    0    0  0.12041986388E+02 -0.16745834497E+02 -0.26804644624E+03  0.26883885462E+03  0.00000000000E+00 0.  1.
          3    1    3    3  501    0  0.82106134466E+01 -0.94724919382E+01 -0.13741228047E+03  0.13798288698E+03  0.00000000000E+00 0.  1.
         -3    1    1    2    0  502 -0.20252599834E+02  0.26218326435E+02 -0.59339771718E+03  0.59432181451E+03  0.00000000000E+00 0. -1.
<mgrwt>
<rscale>  1 0.30000000E+03</rscale>
<asrwt>0</asrwt>
<pdfrwt beam="1">  1       21 0.41583946E-02 0.30000000E+03</pdfrwt>
<pdfrwt beam="2">0</pdfrwt>
<totfact> 0.39382796E+04</totfact>
</mgrwt>
</event>
<event>
 6    1  0.1273846E-001  0.3000000E+03  0.7818608E-02  0.1093470E+00
         21   -1    0    0  501  502  0.00000000000E+00  0.00000000000E+00  0.14415754663E+01  0.14415754663E+01  0.00000000000E+00 0. -1.
         13   -1    0    0    0    0 -0.00000000000E+00 -0.00000000000E+00 -0.10000000000E+04  0.10000000000E+04  0.00000000000E+00 0.  1.
    9000005    2    1    2  501    0  0.34808380030E+02  0.14663312963E+02 -0.52531826725E+03  0.52669650436E+03  0.48259443051E+01 0.  0.
         13    1    3    3    0    0  0.27140917904E+02  0.12707783645E+02 -0.39223903408E+03  0.39338222767E+03  0.00000000000E+00 0.  1.
          1    1    3    3  501    0  0.76674621256E+01  0.19555293178E+01 -0.13307923316E+03  0.13331427669E+03  0.00000000000E+00 0.  1.
         -1    1    1    2    0  502 -0.34808380030E+02 -0.14663312963E+02 -0.47324015729E+03  0.47474507110E+03  0.00000000000E+00 0. -1.
<mgrwt>
<rscale>  1 0.30000000E+03</rscale>
<asrwt>0</asrwt>
<pdfrwt beam="1">  1       21 0.52421037E-02 0.30000000E+03</pdfrwt>
<pdfrwt beam="2">0</pdfrwt>
<totfact> 0.26571205E+04</totfact>
</mgrwt>
</event>
<event>
 6    1  0.1273846E-001  0.3000000E+03  0.7818608E-02  0.1093470E+00
         21   -1    0    0  501  502  0.00000000000E+00  0.00000000000E+00  0.18791341471E+01  0.18791341471E+01  0.00000000000E+00 0. -1.
         13   -1    0    0    0    0 -0.00000000000E+00 -0.00000000000E+00 -0.10000000000E+04  0.10000000000E+04  0.00000000000E+00 0.  1.
    9000005    2    1    2  501    0 -0.40517577735E+02  0.12053067308E+01 -0.67466063842E+03  0.67588888031E+03  0.39591179715E+01 0.  0.
         13    1    3    3    0    0 -0.35620896790E+02  0.76695913452E+00 -0.61158012633E+03  0.61261708060E+03  0.00000000000E+00 0.  1.
          1    1    3    3  501    0 -0.48966809458E+01  0.43834759632E+00 -0.63080512091E+02  0.63271799710E+02  0.00000000000E+00 0.  1.
         -1    1    1    2    0  502  0.40517577735E+02 -0.12053067308E+01 -0.32346022743E+03  0.32599025384E+03  0.00000000000E+00 0. -1.
<mgrwt>
<rscale>  1 0.30000000E+03</rscale>
<asrwt>0</asrwt>
<pdfrwt beam="1">  1       21 0.68332295E-02 0.30000000E+03</pdfrwt>
<pdfrwt beam="2">0</pdfrwt>
<totfact> 0.16826133E+04</totfact>
</mgrwt>
</event>
<event>
 6    1  0.1273846E-001  0.3000000E+03  0.7818608E-02  0.1093470E+00
         21   -1    0    0  501  502  0.00000000000E+00  0.00000000000E+00  0.16483455149E+01  0.16483455149E+01  0.00000000000E+00 0. -1.
         13   -1    0    0    0    0 -0.00000000000E+00 -0.00000000000E+00 -0.10000000000E+04  0.10000000000E+04  0.00000000000E+00 0.  1.
    9000005    2    1    2  501    0  0.28829179630E+02  0.27390695328E+02 -0.59603098506E+03  0.59736714037E+03  0.36322789714E+01 0.  0.
         13    1    3    3    0    0  0.14071888630E+01  0.16176466286E+01 -0.46256845458E+02  0.46306508321E+02  0.00000000000E+00 0.  1.
          1    1    3    3  501    0  0.27421990767E+02  0.25773048700E+02 -0.54977413960E+03  0.55106063205E+03  0.00000000000E+00 0.  1.
         -3    1    1    2    0  502 -0.28829179630E+02 -0.27390695328E+02 -0.40232066942E+03  0.40428120514E+03  0.00000000000E+00 0. -1.
<mgrwt>
<rscale>  1 0.30000000E+03</rscale>
<asrwt>0</asrwt>
<pdfrwt beam="1">  1       21 0.59939963E-02 0.30000000E+03</pdfrwt>
<pdfrwt beam="2">0</pdfrwt>
<totfact> 0.21108077E+04</totfact>
</mgrwt>
</event>
<event>
 6    1  0.1273846E-001  0.3000000E+03  0.7818608E-02  0.1093470E+00
         21   -1    0    0  501  502  0.00000000000E+00  0.00000000000E+00  0.16137730209E+01  0.16137730209E+01  0.00000000000E+00 0. -1.
         13   -1    0    0    0    0 -0.00000000000E+00 -0.00000000000E+00 -0.10000000000E+04  0.10000000000E+04  0.00000000000E+00 0.  1.
    9000005    2    1    2  501    0 -0.27835428294E+02  0.18271998042E+02 -0.77864987933E+03  0.77936899927E+03  0.34242464847E+01 0.  0.
         13    1    3    3    0    0 -0.15622631570E+02  0.82255134113E+01 -0.40588974306E+03  0.40627356450E+03  0.00000000000E+00 0.  1.
          3    1    3    3  501    0 -0.12212796724E+02  0.10046484631E+02 -0.37276013626E+03  0.37309543477E+03  0.00000000000E+00 0.  1.
         -3    1    1    2    0  502  0.27835428294E+02 -0.18271998042E+02 -0.21973634765E+03  0.22224477375E+03  0.00000000000E+00 0. -1.
<mgrwt>
<rscale>  1 0.30000000E+03</rscale>
<asrwt>0</asrwt>
<pdfrwt beam="1">  1       21 0.58682779E-02 0.30000000E+03</pdfrwt>
<pdfrwt beam="2">0</pdfrwt>
<totfact> 0.21893661E+04</totfact>
</mgrwt>
</event>
<event>
 6    1  0.1273846E-001  0.3000000E+03  0.7818608E-02  0.1093470E+00
         21   -1    0    0  501  502  0.00000000000E+00  0.00000000000E+00  0.10776918191E+01  0.10776918191E+01  0.00000000000E+00 0. -1.
         13   -1    0    0    0    0 -0.00000000000E+00 -0.00000000000E+00 -0.10000000000E+04  0.10000000000E+04  0.00000000000E+00 0.  1.
    9000005    2    1    2  501    0  0.30188751066E+02  0.61704106997E+01 -0.66959269531E+03  0.67030975418E+03  0.33696099934E+01 0.  0.
         13    1    3    3    0    0  0.69387384311E+01  0.25194772408E+00 -0.13335831379E+03  0.13353894347E+03  0.00000000000E+00 0.  1.
          3    1    3    3  501    0  0.23250012635E+02  0.59184629757E+01 -0.53623438153E+03  0.53677081070E+03  0.00000000000E+00 0.  1.
         -1    1    1    2    0  502 -0.30188751066E+02 -0.61704106997E+01 -0.32932961287E+03  0.33076793764E+03  0.00000000000E+00 0. -1.
<mgrwt>
<rscale>  1 0.30000000E+03</rscale>
<asrwt>0</asrwt>
<pdfrwt beam="1">  1       21 0.39188876E-02 0.30000000E+03</pdfrwt>
<pdfrwt beam="2">0</pdfrwt>
<totfact> 0.43522515E+04</totfact>
</mgrwt>
</event>
<event>
 6    1  0.1273846E-001  0.3000000E+03  0.7818608E-02  0.1093470E+00
         21   -1    0    0  501  502  0.00000000000E+00  0.00000000000E+00  0.44884861982E+01  0.44884861982E+01  0.00000000000E+00 0. -1.
         13   -1    0    0    0    0 -0.00000000000E+00 -0.00000000000E+00 -0.10000000000E+04  0.10000000000E+04  0.00000000000E+00 0.  1.
    9000005    2    1    2  501    0 -0.42674991841E+02 -0.50443750056E+01 -0.11308311526E+03  0.12101438969E+03  0.31766188470E+01 0.  0.
         13    1    3    3    0    0 -0.13559811016E+02 -0.30750974801E+01 -0.37218718670E+02  0.39731067425E+02  0.00000000000E+00 0.  1.
          3    1    3    3  501    0 -0.29115180825E+02 -0.19692775255E+01 -0.75864396589E+02  0.81283322264E+02  0.00000000000E+00 0.  1.
         -1    1    1    2    0  502  0.42674991841E+02  0.50443750056E+01 -0.88242839854E+03  0.88347409651E+03  0.00000000000E+00 0. -1.
<mgrwt>
<rscale>  1 0.30000000E+03</rscale>
<asrwt>0</asrwt>
<pdfrwt beam="1">  1       21 0.16321802E-01 0.30000000E+03</pdfrwt>
<pdfrwt beam="2">0</pdfrwt>
<totfact> 0.35194810E+03</totfact>
</mgrwt>
</event>
<event>
 6    1  0.1273846E-001  0.3000000E+03  0.7818608E-02  0.1093470E+00
         21   -1    0    0  501  502  0.00000000000E+00  0.00000000000E+00  0.20487468902E+01  0.20487468902E+01  0.00000000000E+00 0. -1.
         13   -1    0    0    0    0 -0.00000000000E+00 -0.00000000000E+00 -0.10000000000E+04  0.10000000000E+04  0.00000000000E+00 0.  1.
    9000005    2    1    2  501    0 -0.22902771524E+01 -0.34679146486E+02 -0.81962708471E+03  0.82036936554E+03  0.30739818212E+01 0.  0.
         13    1    3    3    0    0 -0.14108454001E+01 -0.31565900893E+02 -0.75615284827E+03  0.75681274206E+03  0.00000000000E+00 0.  1.
          3    1    3    3  501    0 -0.87943175231E+00 -0.31132455933E+01 -0.63474236434E+02  0.63556623488E+02  0.00000000000E+00 0.  1.
         -1    1    1    2    0  502  0.22902771524E+01  0.34679146486E+02 -0.17832416840E+03  0.18167938135E+03  0.00000000000E+00 0. -1.
<mgrwt>
<rscale>  1 0.30000000E+03</rscale>
<asrwt>0</asrwt>
<pdfrwt beam="1">  1       21 0.74500044E-02 0.30000000E+03</pdfrwt>
<pdfrwt beam="2">0</pdfrwt>
<totfact> 0.14472936E+04</totfact>
</mgrwt>
</event>
<event>
 6    1  0.1273846E-001  0.3000000E+03  0.7818608E-02  0.1093470E+00
         21   -1    0    0  501  502  0.00000000000E+00  0.00000000000E+00  0.26642450158E+01  0.26642450158E+01  0.00000000000E+00 0. -1.
         13   -1    0    0    0    0 -0.00000000000E+00 -0.00000000000E+00 -0.10000000000E+04  0.10000000000E+04  0.00000000000E+00 0.  1.
    9000005    2    1    2  501    0  0.31577757395E+02 -0.26566068851E+02 -0.79950737512E+03  0.80057768273E+03  0.31100546508E+01 0.  0.
         13    1    3    3    0    0  0.28421505229E+02 -0.23000317879E+02 -0.69280612130E+03  0.69377022010E+03  0.00000000000E+00 0.  1.
          1    1    3    3  501    0  0.31562521652E+01 -0.35657509726E+01 -0.10670125382E+03  0.10680746263E+03  0.00000000000E+00 0.  1.
         -1    1    1    2    0  502 -0.31577757395E+02  0.26566068851E+02 -0.19782837987E+03  0.20208656229E+03  0.00000000000E+00 0. -1.
<mgrwt>
<rscale>  1 0.30000000E+03</rscale>
<asrwt>0</asrwt>
<pdfrwt beam="1">  1       21 0.96881841E-02 0.30000000E+03</pdfrwt>
<pdfrwt beam="2">0</pdfrwt>
<totfact> 0.91037495E+03</totfact>
</mgrwt>
</event>
<event>
 6    1  0.1273846E-001  0.3000000E+03  0.7818608E-02  0.1093470E+00
         21   -1    0    0  501  502  0.00000000000E+00  0.00000000000E+00  0.24090887932E+01  0.24090887932E+01  0.00000000000E+00 0. -1.
         13   -1    0    0    0    0 -0.00000000000E+00 -0.00000000000E+00 -0.10000000000E+04  0.10000000000E+04  0.00000000000E+00 0.  1.
    9000005    2    1    2  501    0  0.10269981498E+02  0.36221346832E+02 -0.82000090106E+03  0.82087212233E+03  0.34792246747E+01 0.  0.
         13    1    3    3    0    0 -0.71350227791E-01  0.30305954961E+01 -0.72013321643E+02  0.72077098263E+02  0.00000000000E+00 0.  1.
          3    1    3    3  501    0  0.10341331726E+02  0.33190751335E+02 -0.74798757941E+03  0.74879502407E+03  0.00000000000E+00 0.  1.
         -1    1    1    2    0  502 -0.10269981498E+02 -0.36221346832E+02 -0.17759001015E+03  0.18153696646E+03  0.00000000000E+00 0. -1.
<mgrwt>
<rscale>  1 0.30000000E+03</rscale>
<asrwt>0</asrwt>
<pdfrwt beam="1">  1       21 0.87603414E-02 0.30000000E+03</pdfrwt>
<pdfrwt beam="2">0</pdfrwt>
<totfact> 0.10885770E+04</totfact>
</mgrwt>
</event>
<event>
 6    1  0.1273846E-001  0.3000000E+03  0.7818608E-02  0.1093470E+00
         21   -1    0    0  501  502  0.00000000000E+00  0.00000000000E+00  0.50424065758E+01  0.50424065758E+01  0.00000000000E+00 0. -1.
         13   -1    0    0    0    0 -0.00000000000E+00 -0.00000000000E+00 -0.10000000000E+04  0.10000000000E+04  0.00000000000E+00 0.  1.
    9000005    2    1    2  501    0 -0.18325291100E+02  0.59824238124E+02 -0.73500096119E+03  0.73766214103E+03  0.20653321183E+01 0.  0.
         13    1    3    3    0    0 -0.31909751316E+01  0.11679167947E+02 -0.15097807700E+03  0.15146275126E+03  0.00000000000E+00 0.  1.
          3    1    3    3  501    0 -0.15134315969E+02  0.48145070177E+02 -0.58402288419E+03  0.58619938977E+03  0.00000000000E+00 0.  1.
         -3    1    1    2    0  502  0.18325291100E+02 -0.59824238124E+02 -0.25995663223E+03  0.26738026555E+03  0.00000000000E+00 0. -1.
<mgrwt>
<rscale>  1 0.30000000E+03</rscale>
<asrwt>0</asrwt>
<pdfrwt beam="1">  1       21 0.18336063E-01 0.30000000E+03</pdfrwt>
<pdfrwt beam="2">0</pdfrwt>
<totfact> 0.28291461E+03</totfact>
</mgrwt>
</event>
<event>
 6    1  0.1273846E-001  0.3000000E+03  0.7818608E-02  0.1093470E+00
         21   -1    0    0  501  502  0.00000000000E+00  0.00000000000E+00  0.20432127368E+01  0.20432127368E+01  0.00000000000E+00 0. -1.
         13   -1    0    0    0    0 -0.00000000000E+00 -0.00000000000E+00 -0.10000000000E+04  0.10000000000E+04  0.00000000000E+00 0.  1.
    9000005    2    1    2  501    0  0.14826622384E+02  0.30030868444E+02 -0.83497376165E+03  0.83565466616E+03  0.39820416814E+01 0.  0.
         13    1    3    3    0    0  0.92799928587E+01  0.15024671463E+02 -0.41124535150E+03  0.41162434106E+03  0.00000000000E+00 0.  1.
          3    1    3    3  501    0  0.55466295248E+01  0.15006196980E+02 -0.42372841014E+03  0.42403032511E+03  0.00000000000E+00 0.  1.
         -3    1    1    2    0  502 -0.14826622384E+02 -0.30030868444E+02 -0.16298302562E+03  0.16638854657E+03  0.00000000000E+00 0. -1.
<mgrwt>
<rscale>  1 0.30000000E+03</rscale>
<asrwt>0</asrwt>
<pdfrwt beam="1">  1       21 0.74298802E-02 0.30000000E+03</pdfrwt>
<pdfrwt beam="2">0</pdfrwt>
<totfact> 0.14541609E+04</totfact>
</mgrwt>
</event>
<event>
 6    1  0.1273846E-001  0.3000000E+03  0.7818608E-02  0.1093470E+00
         21   -1    0    0  501  502  0.00000000000E+00  0.00000000000E+00  0.11571885376E+01  0.11571885376E+01  0.00000000000E+00 0. -1.
         13   -1    0    0    0    0 -0.00000000000E+00 -0.00000000000E+00 -0.10000000000E+04  0.10000000000E+04  0.00000000000E+00 0.  1.
    9000005    2    1    2  501    0  0.16695524864E+00  0.33896108991E+02 -0.52364977781E+03  0.52475673376E+03  0.34008453689E+01 0.  0.
         13    1    3    3    0    0  0.73155436888E+00  0.13805117262E+02 -0.19017641631E+03  0.19067822569E+03  0.00000000000E+00 0.  1.
          1    1    3    3  501    0 -0.56459912024E+00  0.20090991730E+02 -0.33347336150E+03  0.33407850807E+03  0.00000000000E+00 0.  1.
         -3    1    1    2    0  502 -0.16695524864E+00 -0.33896108991E+02 -0.47519303366E+03  0.47640045478E+03  0.00000000000E+00 0. -1.
<mgrwt>
<rscale>  1 0.30000000E+03</rscale>
<asrwt>0</asrwt>
<pdfrwt beam="1">  1       21 0.42079672E-02 0.30000000E+03</pdfrwt>
<pdfrwt beam="2">0</pdfrwt>
<totfact> 0.38602716E+04</totfact>
</mgrwt>
</event>
<event>
 6    1  0.1273846E-001  0.3000000E+03  0.7818608E-02  0.1093470E+00
         21   -1    0    0  501  502  0.00000000000E+00  0.00000000000E+00  0.11426128487E+01  0.11426128487E+01  0.00000000000E+00 0. -1.
         13   -1    0    0    0    0 -0.00000000000E+00 -0.00000000000E+00 -0.10000000000E+04  0.10000000000E+04  0.00000000000E+00 0.  1.
    9000005    2    1    2  501    0  0.30982318158E+02  0.94791376152E+01 -0.63779314816E+03  0.63862758866E+03  0.39165114621E+01 0.  0.
         13    1    3    3    0    0  0.16671277833E+02  0.56658947829E+01 -0.38273294949E+03  0.38313776177E+03  0.00000000000E+00 0.  1.
          3    1    3    3  501    0  0.14311040325E+02  0.38132428323E+01 -0.25506019867E+03  0.25548982689E+03  0.00000000000E+00 0.  1.
         -1    1    1    2    0  502 -0.30982318158E+02 -0.94791376152E+01 -0.36106423899E+03  0.36251502419E+03  0.00000000000E+00 0. -1.
<mgrwt>
<rscale>  1 0.30000000E+03</rscale>
<asrwt>0</asrwt>
<pdfrwt beam="1">  1       21 0.41549646E-02 0.30000000E+03</pdfrwt>
<pdfrwt beam="2">0</pdfrwt>
<totfact> 0.39437677E+04</totfact>
</mgrwt>
</event>
<event>
 6    1  0.1273846E-001  0.3000000E+03  0.7818608E-02  0.1093470E+00
         21   -1    0    0  501  502  0.00000000000E+00  0.00000000000E+00  0.69239323900E+01  0.69239323900E+01  0.00000000000E+00 0. -1.
         13   -1    0    0    0    0 -0.00000000000E+00 -0.00000000000E+00 -0.10000000000E+04  0.10000000000E+04  0.00000000000E+00 0.  1.
    9000005    2    1    2  501    0  0.39043434659E+01 -0.37844180881E+02 -0.94426657756E+03  0.94503861715E+03  0.33455144079E+01 0.  0.
         13    1    3    3    0    0  0.16314733244E+00 -0.16249271250E+02 -0.41909796196E+03  0.41941288386E+03  0.00000000000E+00 0.  1.
          3    1    3    3  501    0  0.37411961335E+01 -0.21594909631E+02 -0.52516861560E+03  0.52562573328E+03  0.00000000000E+00 0.  1.
         -1    1    1    2    0  502 -0.39043434659E+01  0.37844180881E+02 -0.48809490046E+02  0.61885315245E+02  0.00000000000E+00 0. -1.
<mgrwt>
<rscale>  1 0.30000000E+03</rscale>
<asrwt>0</asrwt>
<pdfrwt beam="1">  1       21 0.25177989E-01 0.30000000E+03</pdfrwt>
<pdfrwt beam="2">0</pdfrwt>
<totfact> 0.15380797E+03</totfact>
</mgrwt>
</event>
<event>
 6    1  0.1273846E-001  0.3000000E+03  0.7818608E-02  0.1093470E+00
         21   -1    0    0  501  502  0.00000000000E+00  0.00000000000E+00  0.70114994706E+01  0.70114994706E+01  0.00000000000E+00 0. -1.
         13   -1    0    0    0    0 -0.00000000000E+00 -0.00000000000E+00 -0.10000000000E+04  0.10000000000E+04  0.00000000000E+00 0.  1.
    9000005    2    1    2  501    0 -0.13833559703E+02 -0.67438432391E+02 -0.78294726010E+03  0.78597613529E+03  0.35726194210E+01 0.  0.
         13    1    3    3    0    0 -0.33793609806E+01 -0.24222429423E+02 -0.26984931224E+03  0.27095534223E+03  0.00000000000E+00 0.  1.
          1    1    3    3  501    0 -0.10454198722E+02 -0.43216002968E+02 -0.51309794787E+03  0.51502079306E+03  0.00000000000E+00 0.  1.
         -1    1    1    2    0  502  0.13833559703E+02  0.67438432391E+02 -0.21004124043E+03  0.22103536418E+03  0.00000000000E+00 0. -1.
<mgrwt>
<rscale>  1 0.30000000E+03</rscale>
<asrwt>0</asrwt>
<pdfrwt beam="1">  1       21 0.25496415E-01 0.30000000E+03</pdfrwt>
<pdfrwt beam="2">0</pdfrwt>
<totfact> 0.15006272E+03</totfact>
</mgrwt>
</event>
<event>
 6    1  0.1273846E-001  0.3000000E+03  0.7818608E-02  0.1093470E+00
         21   -1    0    0  501  502  0.00000000000E+00  0.00000000000E+00  0.53210926850E+01  0.53210926850E+01  0.00000000000E+00 0. -1.
         13   -1    0    0    0    0 -0.00000000000E+00 -0.00000000000E+00 -0.10000000000E+04  0.10000000000E+04  0.00000000000E+00 0.  1.
    9000005    2    1    2  501    0  0.20099821244E+02  0.47521068098E+02 -0.85247319454E+03  0.85404412989E+03  0.43097168611E+01 0.  0.
         13    1    3    3    0    0  0.15986712388E+01  0.77288795587E+01 -0.13214657482E+03  0.13238205530E+03  0.00000000000E+00 0.  1.
          3    1    3    3  501    0  0.18501150005E+02  0.39792188540E+02 -0.72032661973E+03  0.72166207459E+03  0.00000000000E+00 0.  1.
         -1    1    1    2    0  502 -0.20099821244E+02 -0.47521068098E+02 -0.14220571277E+03  0.15127696279E+03  0.00000000000E+00 0. -1.
<mgrwt>
<rscale>  1 0.30000000E+03</rscale>
<asrwt>0</asrwt>
<pdfrwt beam="1">  1       21 0.19349469E-01 0.30000000E+03</pdfrwt>
<pdfrwt beam="2">0</pdfrwt>
<totfact> 0.25551679E+03</totfact>
</mgrwt>
</event>
<event>
 6    1  0.1273846E-001  0.3000000E+03  0.7818608E-02  0.1093470E+00
         21   -1    0    0  501  502  0.00000000000E+00  0.00000000000E+00  0.20114368566E+01  0.20114368566E+01  0.00000000000E+00 0. -1.
         13   -1    0    0    0    0 -0.00000000000E+00 -0.00000000000E+00 -0.10000000000E+04  0.10000000000E+04  0.00000000000E+00 0.  1.
    9000005    2    1    2  501    0 -0.33850131822E+02  0.11892694215E+01 -0.18112610424E+03  0.18444705251E+03  0.81733564914E+01 0.  0.
         13    1    3    3    0    0 -0.15615346426E+02  0.42370413829E+01 -0.75370575828E+02  0.77087711500E+02  0.00000000000E+00 0.  1.
          1    1    3    3  501    0 -0.18234785396E+02 -0.30477719613E+01 -0.10575552841E+03  0.10735934101E+03  0.00000000000E+00 0.  1.
         -3    1    1    2    0  502  0.33850131822E+02 -0.11892694215E+01 -0.81686245890E+03  0.81756438435E+03  0.00000000000E+00 0. -1.
<mgrwt>
<rscale>  1 0.30000000E+03</rscale>
<asrwt>0</asrwt>
<pdfrwt beam="1">  1       21 0.73143313E-02 0.30000000E+03</pdfrwt>
<pdfrwt beam="2">0</pdfrwt>
<totfact> 0.14945637E+04</totfact>
</mgrwt>
</event>
<event>
 6    1  0.1273846E-001  0.3000000E+03  0.7818608E-02  0.1093470E+00
         21   -1    0    0  501  502  0.00000000000E+00  0.00000000000E+00  0.17062072057E+01  0.17062072057E+01  0.00000000000E+00 0. -1.
         13   -1    0    0    0    0 -0.00000000000E+00 -0.00000000000E+00 -0.10000000000E+04  0.10000000000E+04  0.00000000000E+00 0.  1.
    9000005    2    1    2  501    0  0.28031438216E+02 -0.14275038019E+02 -0.82315739171E+03  0.82376718050E+03  0.38389984808E+01 0.  0.
         13    1    3    3    0    0  0.12477140960E+02 -0.61613364396E+01 -0.41417302351E+03  0.41440672595E+03  0.00000000000E+00 0.  1.
          1    1    3    3  501    0  0.15554297257E+02 -0.81137015791E+01 -0.40898436820E+03  0.40936045455E+03  0.00000000000E+00 0.  1.
         -3    1    1    2    0  502 -0.28031438216E+02  0.14275038019E+02 -0.17513640109E+03  0.17793902671E+03  0.00000000000E+00 0. -1.
<mgrwt>
<rscale>  1 0.30000000E+03</rscale>
<asrwt>0</asrwt>
<pdfrwt beam="1">  1       21 0.62044029E-02 0.30000000E+03</pdfrwt>
<pdfrwt beam="2">0</pdfrwt>
<totfact> 0.19887942E+04</totfact>
</mgrwt>
</event>
<event>
 6    1  0.1273846E-001  0.3000000E+03  0.7818608E-02  0.1093470E+00
         21   -1    0    0  501  502  0.00000000000E+00  0.00000000000E+00  0.19583574670E+02  0.19583574670E+02  0.00000000000E+00 0. -1.
         13   -1    0    0    0    0 -0.00000000000E+00 -0.00000000000E+00 -0.10000000000E+04  0.10000000000E+04  0.00000000000E+00 0.  1.
    9000005    2    1    2  501    0  0.37584022571E+02  0.48370476003E+02 -0.94855040258E+03  0.95053500403E+03  0.40823953767E+01 0.  0.
         13    1    3    3    0    0  0.94757922112E+01  0.12037098082E+02 -0.21091307423E+03  0.21146869094E+03  0.00000000000E+00 0.  1.
          1    1    3    3  501    0  0.28108230360E+02  0.36333377921E+02 -0.73763732835E+03  0.73906631309E+03  0.00000000000E+00 0.  1.
         -3    1    1    2    0  502 -0.37584022571E+02 -0.48370476003E+02 -0.31866022750E+02  0.69048570639E+02  0.00000000000E+00 0. -1.
<mgrwt>
<rscale>  1 0.30000000E+03</rscale>
<asrwt>0</asrwt>
<pdfrwt beam="1">  1       21 0.71213149E-01 0.30000000E+03</pdfrwt>
<pdfrwt beam="2">0</pdfrwt>
<totfact> 0.16947479E+02</totfact>
</mgrwt>
</event>
<event>
 6    1  0.1273846E-001  0.3000000E+03  0.7818608E-02  0.1093470E+00
         21   -1    0    0  501  502  0.00000000000E+00  0.00000000000E+00  0.24849487471E+01  0.24849487471E+01  0.00000000000E+00 0. -1.
         13   -1    0    0    0    0 -0.00000000000E+00 -0.00000000000E+00 -0.10000000000E+04  0.10000000000E+04  0.00000000000E+00 0.  1.
    9000005    2    1    2  501    0  0.26209427088E+02  0.25319172363E+02 -0.84045093377E+03  0.84124868869E+03  0.36864055040E+01 0.  0.
         13    1    3    3    0    0  0.16088938887E+02  0.15027357068E+02 -0.46624704481E+03  0.46676651787E+03  0.00000000000E+00 0.  1.
          1    1    3    3  501    0  0.10120488201E+02  0.10291815294E+02 -0.37420388896E+03  0.37448217082E+03  0.00000000000E+00 0.  1.
         -1    1    1    2    0  502 -0.26209427088E+02 -0.25319172363E+02 -0.15706411748E+03  0.16123626006E+03  0.00000000000E+00 0. -1.
<mgrwt>
<rscale>  1 0.30000000E+03</rscale>
<asrwt>0</asrwt>
<pdfrwt beam="1">  1       21 0.90361963E-02 0.30000000E+03</pdfrwt>
<pdfrwt beam="2">0</pdfrwt>
<totfact> 0.10304539E+04</totfact>
</mgrwt>
</event>
<event>
 6    1  0.1273846E-001  0.3000000E+03  0.7818608E-02  0.1093470E+00
         21   -1    0    0  501  502  0.00000000000E+00  0.00000000000E+00  0.15931784545E+02  0.15931784545E+02  0.00000000000E+00 0. -1.
         13   -1    0    0    0    0 -0.00000000000E+00 -0.00000000000E+00 -0.10000000000E+04  0.10000000000E+04  0.00000000000E+00 0.  1.
    9000005    2    1    2  501    0  0.80713661227E+01 -0.72887989449E+02 -0.90544643737E+03  0.90841811124E+03  0.35224905066E+01 0.  0.
         13    1    3    3    0    0  0.36141898909E+01 -0.46327374552E+02 -0.58283812320E+03  0.58468757970E+03  0.00000000000E+00 0.  1.
          1    1    3    3  501    0  0.44571762318E+01 -0.26560614897E+02 -0.32260831416E+03  0.32373053154E+03  0.00000000000E+00 0.  1.
         -1    1    1    2    0  502 -0.80713661227E+01  0.72887989449E+02 -0.78621778089E+02  0.10751367330E+03  0.00000000000E+00 0. -1.
<mgrwt>
<rscale>  1 0.30000000E+03</rscale>
<asrwt>0</asrwt>
<pdfrwt beam="1">  1       21 0.57933884E-01 0.30000000E+03</pdfrwt>
<pdfrwt beam="2">0</pdfrwt>
<totfact> 0.27162127E+02</totfact>
</mgrwt>
</event>
<event>
 6    1  0.1273846E-001  0.3000000E+03  0.7818608E-02  0.1093470E+00
         21   -1    0    0  501  502  0.00000000000E+00  0.00000000000E+00  0.18730792233E+01  0.18730792233E+01  0.00000000000E+00 0. -1.
         13   -1    0    0    0    0 -0.00000000000E+00 -0.00000000000E+00 -0.10000000000E+04  0.10000000000E+04  0.00000000000E+00 0.  1.
    9000005    2    1    2  501    0  0.30915762017E+02 -0.13297101083E+02 -0.18598985768E+03  0.18903902082E+03  0.33056007022E+01 0.  0.
         13    1    3    3    0    0  0.10626803665E+02 -0.62945092817E+01 -0.67075027697E+02  0.68202706279E+02  0.00000000000E+00 0.  1.
          3    1    3    3  501    0  0.20288958352E+02 -0.70025918015E+01 -0.11891482998E+03  0.12083631454E+03  0.00000000000E+00 0.  1.
         -3    1    1    2    0  502 -0.30915762017E+02  0.13297101083E+02 -0.81213706310E+03  0.81283405840E+03  0.00000000000E+00 0. -1.
<mgrwt>
<rscale>  1 0.30000000E+03</rscale>
<asrwt>0</asrwt>
<pdfrwt beam="1">  1       21 0.68112115E-02 0.30000000E+03</pdfrwt>
<pdfrwt beam="2">0</pdfrwt>
<totfact> 0.16920719E+04</totfact>
</mgrwt>
</event>
<event>
 6    1  0.1273846E-001  0.3000000E+03  0.7818608E-02  0.1093470E+00
         21   -1    0    0  501  502  0.00000000000E+00  0.00000000000E+00  0.16187778274E+01  0.16187778274E+01  0.00000000000E+00 0. -1.
         13   -1    0    0    0    0 -0.00000000000E+00 -0.00000000000E+00 -0.10000000000E+04  0.10000000000E+04  0.00000000000E+00 0.  1.
    9000005    2    1    2  501    0 -0.32354571696E+02 -0.22837545202E+02 -0.41874854134E+03  0.42063477076E+03  0.38597560010E+01 0.  0.
         13    1    3    3    0    0 -0.48175782775E+01 -0.18996457471E+01 -0.59005517080E+02  0.59232328675E+02  0.00000000000E+00 0.  1.
          3    1    3    3  501    0 -0.27536993419E+02 -0.20937899455E+02 -0.35974302426E+03  0.36140244208E+03  0.00000000000E+00 0.  1.
         -1    1    1    2    0  502  0.32354571696E+02  0.22837545202E+02 -0.57963268083E+03  0.58098400707E+03  0.00000000000E+00 0. -1.
<mgrwt>
<rscale>  1 0.30000000E+03</rscale>
<asrwt>0</asrwt>
<pdfrwt beam="1">  1       21 0.58864772E-02 0.30000000E+03</pdfrwt>
<pdfrwt beam="2">0</pdfrwt>
<totfact> 0.21777142E+04</totfact>
</mgrwt>
</event>
<event>
 6    1  0.1273846E-001  0.3000000E+03  0.7818608E-02  0.1093470E+00
         21   -1    0    0  501  502  0.00000000000E+00  0.00000000000E+00  0.13421113718E+01  0.13421113718E+01  0.00000000000E+00 0. -1.
         13   -1    0    0    0    0 -0.00000000000E+00 -0.00000000000E+00 -0.10000000000E+04  0.10000000000E+04  0.00000000000E+00 0.  1.
    9000005    2    1    2  501    0  0.27676047039E+02  0.11742363293E+02 -0.78217782977E+03  0.78278442434E+03  0.67417310434E+01 0.  0.
         13    1    3    3    0    0  0.11710160509E+02  0.56731892876E+01 -0.25737607547E+03  0.25770478684E+03  0.00000000000E+00 0.  1.
          3    1    3    3  501    0  0.15965886529E+02  0.60691740059E+01 -0.52480175429E+03  0.52507963750E+03  0.00000000000E+00 0.  1.
         -1    1    1    2    0  502 -0.27676047039E+02 -0.11742363293E+02 -0.21648005886E+03  0.21855768703E+03  0.00000000000E+00 0. -1.
<mgrwt>
<rscale>  1 0.30000000E+03</rscale>
<asrwt>0</asrwt>
<pdfrwt beam="1">  1       21 0.48804153E-02 0.30000000E+03</pdfrwt>
<pdfrwt beam="2">0</pdfrwt>
<totfact> 0.30017501E+04</totfact>
</mgrwt>
</event>
<event>
 6    1  0.1273846E-001  0.3000000E+03  0.7818608E-02  0.1093470E+00
         21   -1    0    0  501  502  0.00000000000E+00  0.00000000000E+00  0.20711106332E+01  0.20711106332E+01  0.00000000000E+00 0. -1.
         13   -1    0    0    0    0 -0.00000000000E+00 -0.00000000000E+00 -0.10000000000E+04  0.10000000000E+04  0.00000000000E+00 0.  1.
    9000005    2    1    2  501    0  0.36340355462E+02 -0.13082864896E+02 -0.76346218614E+03  0.76444447552E+03  0.30105999422E+01 0.  0.
         13    1    3    3    0    0  0.35598012934E+02 -0.12473479899E+02 -0.73665283188E+03  0.73761792341E+03  0.00000000000E+00 0.  1.
          1    1    3    3  501    0  0.74234252777E+00 -0.60938499737E+00 -0.26809354258E+02  0.26826552112E+02  0.00000000000E+00 0.  1.
         -3    1    1    2    0  502 -0.36340355462E+02  0.13082864896E+02 -0.23446670323E+03  0.23762663511E+03  0.00000000000E+00 0. -1.
<mgrwt>
<rscale>  1 0.30000000E+03</rscale>
<asrwt>0</asrwt>
<pdfrwt beam="1">  1       21 0.75313273E-02 0.30000000E+03</pdfrwt>
<pdfrwt beam="2">0</pdfrwt>
<totfact> 0.14200438E+04</totfact>
</mgrwt>
</event>
<event>
 6    1  0.1273846E-001  0.3000000E+03  0.7818608E-02  0.1093470E+00
         21   -1    0    0  501  502  0.00000000000E+00  0.00000000000E+00  0.26264427753E+01  0.26264427753E+01  0.00000000000E+00 0. -1.
         13   -1    0    0    0    0 -0.00000000000E+00 -0.00000000000E+00 -0.10000000000E+04  0.10000000000E+04  0.00000000000E+00 0.  1.
    9000005    2    1    2  501    0  0.38733784872E+02  0.13094970189E+02 -0.80012148174E+03  0.80118125019E+03  0.50225263955E+01 0.  0.
         13    1    3    3    0    0  0.23908197594E+02  0.75201461508E+01 -0.53545900065E+03  0.53604523680E+03  0.00000000000E+00 0.  1.
          3    1    3    3  501    0  0.14825587278E+02  0.55748240378E+01 -0.26466248109E+03  0.26513601339E+03  0.00000000000E+00 0.  1.
         -3    1    1    2    0  502 -0.38733784872E+02 -0.13094970189E+02 -0.19725207548E+03  0.20144519259E+03  0.00000000000E+00 0. -1.
<mgrwt>
<rscale>  1 0.30000000E+03</rscale>
<asrwt>0</asrwt>
<pdfrwt beam="1">  1       21 0.95507211E-02 0.30000000E+03</pdfrwt>
<pdfrwt beam="2">0</pdfrwt>
<totfact> 0.93386936E+03</totfact>
</mgrwt>
</event>
<event>
 6    1  0.1273846E-001  0.3000000E+03  0.7818608E-02  0.1093470E+00
         21   -1    0    0  501  502  0.00000000000E+00  0.00000000000E+00  0.13675801433E+01  0.13675801433E+01  0.00000000000E+00 0. -1.
         13   -1    0    0    0    0 -0.00000000000E+00 -0.00000000000E+00 -0.10000000000E+04  0.10000000000E+04  0.00000000000E+00 0.  1.
    9000005    2    1    2  501    0 -0.13158574581E+02  0.34075328571E+02 -0.57138474642E+03  0.57256127123E+03  0.34065781774E+01 0.  0.
         13    1    3    3    0    0 -0.40950875190E+01  0.67336881881E+01 -0.12166833804E+03  0.12192332337E+03  0.00000000000E+00 0.  1.
          1    1    3    3  501    0 -0.90634870625E+01  0.27341640383E+02 -0.44971640837E+03  0.45063794786E+03  0.00000000000E+00 0.  1.
         -1    1    1    2    0  502  0.13158574581E+02 -0.34075328571E+02 -0.42724767344E+03  0.42880630891E+03  0.00000000000E+00 0. -1.
<mgrwt>
<rscale>  1 0.30000000E+03</rscale>
<asrwt>0</asrwt>
<pdfrwt beam="1">  1       21 0.49730292E-02 0.30000000E+03</pdfrwt>
<pdfrwt beam="2">0</pdfrwt>
<totfact> 0.29071440E+04</totfact>
</mgrwt>
</event>
<event>
 6    1  0.1273846E-001  0.3000000E+03  0.7818608E-02  0.1093470E+00
         21   -1    0    0  501  502  0.00000000000E+00  0.00000000000E+00  0.16193608262E+01  0.16193608262E+01  0.00000000000E+00 0. -1.
         13   -1    0    0    0    0 -0.00000000000E+00 -0.00000000000E+00 -0.10000000000E+04  0.10000000000E+04  0.00000000000E+00 0.  1.
    9000005    2    1    2  501    0 -0.35727305319E+02 -0.15682220695E+02 -0.61728200302E+03  0.61852858454E+03  0.42621894824E+01 0.  0.
         13    1    3    3    0    0 -0.21006827345E+01 -0.17384687874E+01 -0.32226240263E+02  0.32341393030E+02  0.00000000000E+00 0.  1.
          3    1    3    3  501    0 -0.33626622584E+02 -0.13943751908E+02 -0.58505576275E+03  0.58618719151E+03  0.00000000000E+00 0.  1.
         -3    1    1    2    0  502  0.35727305319E+02  0.15682220695E+02 -0.38109863616E+03  0.38309077628E+03  0.00000000000E+00 0. -1.
<mgrwt>
<rscale>  1 0.30000000E+03</rscale>
<asrwt>0</asrwt>
<pdfrwt beam="1">  1       21 0.58885972E-02 0.30000000E+03</pdfrwt>
<pdfrwt beam="2">0</pdfrwt>
<totfact> 0.21763632E+04</totfact>
</mgrwt>
</event>
<event>
 6    1  0.1273846E-001  0.3000000E+03  0.7818608E-02  0.1093470E+00
         21   -1    0    0  501  502  0.00000000000E+00  0.00000000000E+00  0.23665674441E+01  0.23665674441E+01  0.00000000000E+00 0. -1.
         13   -1    0    0    0    0 -0.00000000000E+00 -0.00000000000E+00 -0.10000000000E+04  0.10000000000E+04  0.00000000000E+00 0.  1.
    9000005    2    1    2  501    0 -0.25832993227E+02  0.29571743043E+02 -0.79421414577E+03  0.79519215357E+03  0.35524977185E+01 0.  0.
         13    1    3    3    0    0 -0.14915988421E+01  0.12044085548E+01 -0.55214501243E+02  0.55247774748E+02  0.00000000000E+00 0.  1.
          3    1    3    3  501    0 -0.24341394385E+02  0.28367334488E+02 -0.73899964453E+03  0.73994437883E+03  0.00000000000E+00 0.  1.
         -1    1    1    2    0  502  0.25832993227E+02 -0.29571743043E+02 -0.20341928679E+03  0.20717441387E+03  0.00000000000E+00 0. -1.
<mgrwt>
<rscale>  1 0.30000000E+03</rscale>
<asrwt>0</asrwt>
<pdfrwt beam="1">  1       21 0.86057179E-02 0.30000000E+03</pdfrwt>
<pdfrwt beam="2">0</pdfrwt>
<totfact> 0.11233605E+04</totfact>
</mgrwt>
</event>
<event>
 6    1  0.1273846E-001  0.3000000E+03  0.7818608E-02  0.1093470E+00
         21   -1    0    0  501  502  0.00000000000E+00  0.00000000000E+00  0.22670992392E+01  0.22670992392E+01  0.00000000000E+00 0. -1.
         13   -1    0    0    0    0 -0.00000000000E+00 -0.00000000000E+00 -0.10000000000E+04  0.10000000000E+04  0.00000000000E+00 0.  1.
    9000005    2    1    2  501    0  0.44819998379E+02 -0.15792340989E+02 -0.49433186010E+03  0.49662805997E+03  0.41487054495E+01 0.  0.
         13    1    3    3    0    0  0.11381810004E+02 -0.59276521905E+01 -0.12960226751E+03  0.13023605647E+03  0.00000000000E+00 0.  1.
          3    1    3    3  501    0  0.33438188375E+02 -0.98646887986E+01 -0.36472959258E+03  0.36639200351E+03  0.00000000000E+00 0.  1.
         -3    1    1    2    0  502 -0.44819998379E+02  0.15792340989E+02 -0.50340104066E+03  0.50563903927E+03  0.00000000000E+00 0. -1.
<mgrwt>
<rscale>  1 0.30000000E+03</rscale>
<asrwt>0</asrwt>
<pdfrwt beam="1">  1       21 0.82440146E-02 0.30000000E+03</pdfrwt>
<pdfrwt beam="2">0</pdfrwt>
<totfact> 0.12116644E+04</totfact>
</mgrwt>
</event>
<event>
 6    1  0.1273846E-001  0.3000000E+03  0.7818608E-02  0.1093470E+00
         21   -1    0    0  501  502  0.00000000000E+00  0.00000000000E+00  0.11700575240E+01  0.11700575240E+01  0.00000000000E+00 0. -1.
         13   -1    0    0    0    0 -0.00000000000E+00 -0.00000000000E+00 -0.10000000000E+04  0.10000000000E+04  0.00000000000E+00 0.  1.
    9000005    2    1    2  501    0 -0.31625177770E+02 -0.11676996663E+02 -0.57733174725E+03  0.57832583952E+03  0.35108623504E+01 0.  0.
         13    1    3    3    0    0 -0.12244020265E+02 -0.52725616573E+01 -0.25533479173E+03  0.25568256062E+03  0.00000000000E+00 0.  1.
          3    1    3    3  501    0 -0.19381157505E+02 -0.64044350061E+01 -0.32199695552E+03  0.32264327890E+03  0.00000000000E+00 0.  1.
         -1    1    1    2    0  502  0.31625177770E+02  0.11676996663E+02 -0.42149819523E+03  0.42284421801E+03  0.00000000000E+00 0. -1.
<mgrwt>
<rscale>  1 0.30000000E+03</rscale>
<asrwt>0</asrwt>
<pdfrwt beam="1">  1       21 0.42547636E-02 0.30000000E+03</pdfrwt>
<pdfrwt beam="2">0</pdfrwt>
<totfact> 0.37888149E+04</totfact>
</mgrwt>
</event>
<event>
 6    1  0.1273846E-001  0.3000000E+03  0.7818608E-02  0.1093470E+00
         21   -1    0    0  501  502  0.00000000000E+00  0.00000000000E+00  0.31562756879E+01  0.31562756879E+01  0.00000000000E+00 0. -1.
         13   -1    0    0    0    0 -0.00000000000E+00 -0.00000000000E+00 -0.10000000000E+04  0.10000000000E+04  0.00000000000E+00 0.  1.
    9000005    2    1    2  501    0 -0.33787241258E+02  0.41842974294E+02 -0.64251564809E+03  0.64476989513E+03  0.30736715738E+01 0.  0.
         13    1    3    3    0    0 -0.51780853427E+01  0.60545569792E+01 -0.83069131532E+02  0.83450289643E+02  0.00000000000E+00 0.  1.
          3    1    3    3  501    0 -0.28609155915E+02  0.35788417314E+02 -0.55944651656E+03  0.56131960549E+03  0.00000000000E+00 0.  1.
         -1    1    1    2    0  502  0.33787241258E+02 -0.41842974294E+02 -0.35432807622E+03  0.35838638056E+03  0.00000000000E+00 0. -1.
<mgrwt>
<rscale>  1 0.30000000E+03</rscale>
<asrwt>0</asrwt>
<pdfrwt beam="1">  1       21 0.11477390E-01 0.30000000E+03</pdfrwt>
<pdfrwt beam="2">0</pdfrwt>
<totfact> 0.67173914E+03</totfact>
</mgrwt>
</event>
<event>
 6    1  0.1273846E-001  0.3000000E+03  0.7818608E-02  0.1093470E+00
         21   -1    0    0  501  502  0.00000000000E+00  0.00000000000E+00  0.17001778791E+01  0.17001778791E+01  0.00000000000E+00 0. -1.
         13   -1    0    0    0    0 -0.00000000000E+00 -0.00000000000E+00 -0.10000000000E+04  0.10000000000E+04  0.00000000000E+00 0.  1.
    9000005    2    1    2  501    0 -0.22040042429E+02  0.21343701010E+02 -0.83071977720E+03  0.83133472217E+03  0.89863792518E+01 0.  0.
         13    1    3    3    0    0 -0.80497593300E+00 -0.51538932013E-01 -0.49799062542E+01  0.50448100871E+01  0.00000000000E+00 0.  1.
          3    1    3    3  501    0 -0.21235066496E+02  0.21395239942E+02 -0.82573987095E+03  0.82628991209E+03  0.00000000000E+00 0.  1.
         -1    1    1    2    0  502  0.22040042429E+02 -0.21343701010E+02 -0.16758004492E+03  0.17036545571E+03  0.00000000000E+00 0. -1.
<mgrwt>
<rscale>  1 0.30000000E+03</rscale>
<asrwt>0</asrwt>
<pdfrwt beam="1">  1       21 0.61824781E-02 0.30000000E+03</pdfrwt>
<pdfrwt beam="2">0</pdfrwt>
<totfact> 0.20009901E+04</totfact>
</mgrwt>
</event>
<event>
 6    1  0.1273846E-001  0.3000000E+03  0.7818608E-02  0.1093470E+00
         21   -1    0    0  501  502  0.00000000000E+00  0.00000000000E+00  0.97373222310E+01  0.97373222310E+01  0.00000000000E+00 0. -1.
         13   -1    0    0    0    0 -0.00000000000E+00 -0.00000000000E+00 -0.10000000000E+04  0.10000000000E+04  0.00000000000E+00 0.  1.
    9000005    2    1    2  501    0 -0.90089526728E+01 -0.62528603964E+02 -0.10762501072E+03  0.12484171323E+03  0.33649497525E+01 0.  0.
         13    1    3    3    0    0 -0.17048010523E+01 -0.22857120982E+02 -0.39746669741E+02  0.45881936334E+02  0.00000000000E+00 0.  1.
          1    1    3    3  501    0 -0.73041516204E+01 -0.39671482982E+02 -0.67878340978E+02  0.78959776892E+02  0.00000000000E+00 0.  1.
         -1    1    1    2    0  502  0.90089526728E+01  0.62528603964E+02 -0.88263766705E+03  0.88489560901E+03  0.00000000000E+00 0. -1.
<mgrwt>
<rscale>  1 0.30000000E+03</rscale>
<asrwt>0</asrwt>
<pdfrwt beam="1">  1       21 0.35408519E-01 0.30000000E+03</pdfrwt>
<pdfrwt beam="2">0</pdfrwt>
<totfact> 0.77711439E+02</totfact>
</mgrwt>
</event>
<event>
 6    1  0.1273846E-001  0.3000000E+03  0.7818608E-02  0.1093470E+00
         21   -1    0    0  501  502  0.00000000000E+00  0.00000000000E+00  0.15365231060E+01  0.15365231060E+01  0.00000000000E+00 0. -1.
         13   -1    0    0    0    0 -0.00000000000E+00 -0.00000000000E+00 -0.10000000000E+04  0.10000000000E+04  0.00000000000E+00 0.  1.
    9000005    2    1    2  501    0 -0.54280003729E+01  0.37238237812E+02 -0.63553762968E+03  0.63666487428E+03  0.42348382651E+01 0.  0.
         13    1    3    3    0    0 -0.23097862455E+01  0.23996276737E+02 -0.43344004718E+03  0.43410992952E+03  0.00000000000E+00 0.  1.
          1    1    3    3  501    0 -0.31182141275E+01  0.13241961075E+02 -0.20209758250E+03  0.20255494475E+03  0.00000000000E+00 0.  1.
         -3    1    1    2    0  502  0.54280003729E+01 -0.37238237812E+02 -0.36292584721E+03  0.36487164883E+03  0.00000000000E+00 0. -1.
<mgrwt>
<rscale>  1 0.30000000E+03</rscale>
<asrwt>0</asrwt>
<pdfrwt beam="1">  1       21 0.55873685E-02 0.30000000E+03</pdfrwt>
<pdfrwt beam="2">0</pdfrwt>
<totfact> 0.23821238E+04</totfact>
</mgrwt>
</event>
<event>
 6    1  0.1273846E-001  0.3000000E+03  0.7818608E-02  0.1093470E+00
         21   -1    0    0  501  502  0.00000000000E+00  0.00000000000E+00  0.38673612505E+01  0.38673612505E+01  0.00000000000E+00 0. -1.
         13   -1    0    0    0    0 -0.00000000000E+00 -0.00000000000E+00 -0.10000000000E+04  0.10000000000E+04  0.00000000000E+00 0.  1.
    9000005    2    1    2  501    0 -0.43442378708E+02  0.43037294373E+02 -0.58424601753E+03  0.58746606717E+03  0.57898271256E+01 0.  0.
         13    1    3    3    0    0 -0.19087610418E+01  0.22834728296E+01 -0.18829081046E+02  0.19062841077E+02  0.00000000000E+00 0.  1.
          3    1    3    3  501    0 -0.41533617667E+02  0.40753821544E+02 -0.56541693649E+03  0.56840322609E+03  0.00000000000E+00 0.  1.
         -3    1    1    2    0  502  0.43442378708E+02 -0.43037294373E+02 -0.41188662122E+03  0.41640129408E+03  0.00000000000E+00 0. -1.
<mgrwt>
<rscale>  1 0.30000000E+03</rscale>
<asrwt>0</asrwt>
<pdfrwt beam="1">  1       21 0.14063161E-01 0.30000000E+03</pdfrwt>
<pdfrwt beam="2">0</pdfrwt>
<totfact> 0.46381494E+03</totfact>
</mgrwt>
</event>
<event>
 6    1  0.1273846E-001  0.3000000E+03  0.7818608E-02  0.1093470E+00
         21   -1    0    0  501  502  0.00000000000E+00  0.00000000000E+00  0.33549552564E+01  0.33549552564E+01  0.00000000000E+00 0. -1.
         13   -1    0    0    0    0 -0.00000000000E+00 -0.00000000000E+00 -0.10000000000E+04  0.10000000000E+04  0.00000000000E+00 0.  1.
    9000005    2    1    2  501    0 -0.31317078205E+02  0.15386304401E+02 -0.89840906428E+03  0.89910618736E+03  0.59658710053E+01 0.  0.
         13    1    3    3    0    0 -0.21519964928E+02  0.13419161748E+02 -0.62349418016E+03  0.62400975592E+03  0.00000000000E+00 0.  1.
          1    1    3    3  501    0 -0.97971132772E+01  0.19671426534E+01 -0.27491488412E+03  0.27509643144E+03  0.00000000000E+00 0.  1.
         -3    1    1    2    0  502  0.31317078205E+02 -0.15386304401E+02 -0.98235980465E+02  0.10424876790E+03  0.00000000000E+00 0. -1.
<mgrwt>
<rscale>  1 0.30000000E+03</rscale>
<asrwt>0</asrwt>
<pdfrwt beam="1">  1       21 0.12199863E-01 0.30000000E+03</pdfrwt>
<pdfrwt beam="2">0</pdfrwt>
<totfact> 0.60139167E+03</totfact>
</mgrwt>
</event>
<event>
 6    1  0.1273846E-001  0.3000000E+03  0.7818608E-02  0.1093470E+00
         21   -1    0    0  501  502  0.00000000000E+00  0.00000000000E+00  0.18769843979E+02  0.18769843979E+02  0.00000000000E+00 0. -1.
         13   -1    0    0    0    0 -0.00000000000E+00 -0.00000000000E+00 -0.10000000000E+04  0.10000000000E+04  0.00000000000E+00 0.  1.
    9000005    2    1    2  501    0 -0.46376009072E+02  0.95264987717E+02 -0.81350619624E+03  0.82038264987E+03  0.30345978298E+01 0.  0.
         13    1    3    3    0    0 -0.38164544801E+02  0.79097681966E+02 -0.68260555203E+03  0.68823202151E+03  0.00000000000E+00 0.  1.
          3    1    3    3  501    0 -0.82114642710E+01  0.16167305751E+02 -0.13090064422E+03  0.13215062836E+03  0.00000000000E+00 0.  1.
         -1    1    1    2    0  502  0.46376009072E+02 -0.95264987717E+02 -0.16772395978E+03  0.19838719411E+03  0.00000000000E+00 0. -1.
<mgrwt>
<rscale>  1 0.30000000E+03</rscale>
<asrwt>0</asrwt>
<pdfrwt beam="1">  1       21 0.68254122E-01 0.30000000E+03</pdfrwt>
<pdfrwt beam="2">0</pdfrwt>
<totfact> 0.18710989E+02</totfact>
</mgrwt>
</event>
<event>
 6    1  0.1273846E-001  0.3000000E+03  0.7818608E-02  0.1093470E+00
         21   -1    0    0  501  502  0.00000000000E+00  0.00000000000E+00  0.14366652710E+01  0.14366652710E+01  0.00000000000E+00 0. -1.
         13   -1    0    0    0    0 -0.00000000000E+00 -0.00000000000E+00 -0.10000000000E+04  0.10000000000E+04  0.00000000000E+00 0.  1.
    9000005    2    1    2  501    0 -0.37587203973E+01  0.37587749476E+02 -0.48016377876E+03  0.48166261193E+03  0.38275861686E+01 0.  0.
         13    1    3    3    0    0 -0.40241930980E+00  0.52548385611E+01 -0.85574179445E+02  0.85736313527E+02  0.00000000000E+00 0.  1.
          3    1    3    3  501    0 -0.33563010875E+01  0.32332910915E+02 -0.39458959931E+03  0.39592629841E+03  0.00000000000E+00 0.  1.
         -3    1    1    2    0  502  0.37587203973E+01 -0.37587749476E+02 -0.51839955597E+03  0.51977405334E+03  0.00000000000E+00 0. -1.
<mgrwt>
<rscale>  1 0.30000000E+03</rscale>
<asrwt>0</asrwt>
<pdfrwt beam="1">  1       21 0.52242484E-02 0.30000000E+03</pdfrwt>
<pdfrwt beam="2">0</pdfrwt>
<totfact> 0.26726593E+04</totfact>
</mgrwt>
</event>
<event>
 6    1  0.1273846E-001  0.3000000E+03  0.7818608E-02  0.1093470E+00
         21   -1    0    0  501  502  0.00000000000E+00  0.00000000000E+00  0.15598833961E+01  0.15598833961E+01  0.00000000000E+00 0. -1.
         13   -1    0    0    0    0 -0.00000000000E+00 -0.00000000000E+00 -0.10000000000E+04  0.10000000000E+04  0.00000000000E+00 0.  1.
    9000005    2    1    2  501    0  0.12839836751E+01  0.38362456632E+02 -0.61449663181E+03  0.61570249237E+03  0.31814954430E+01 0.  0.
         13    1    3    3    0    0 -0.37071651298E+00  0.12309454826E+02 -0.21768931392E+03  0.21803737639E+03  0.00000000000E+00 0.  1.
          1    1    3    3  501    0  0.16547001880E+01  0.26053001806E+02 -0.39680731789E+03  0.39766511598E+03  0.00000000000E+00 0.  1.
         -1    1    1    2    0  502 -0.12839836751E+01 -0.38362456632E+02 -0.38394348480E+03  0.38585739103E+03  0.00000000000E+00 0. -1.
<mgrwt>
<rscale>  1 0.30000000E+03</rscale>
<asrwt>0</asrwt>
<pdfrwt beam="1">  1       21 0.56723152E-02 0.30000000E+03</pdfrwt>
<pdfrwt beam="2">0</pdfrwt>
<totfact> 0.23211740E+04</totfact>
</mgrwt>
</event>
<event>
 6    1  0.1273846E-001  0.3000000E+03  0.7818608E-02  0.1093470E+00
         21   -1    0    0  501  502  0.00000000000E+00  0.00000000000E+00  0.10487176617E+01  0.10487176617E+01  0.00000000000E+00 0. -1.
         13   -1    0    0    0    0 -0.00000000000E+00 -0.00000000000E+00 -0.10000000000E+04  0.10000000000E+04  0.00000000000E+00 0.  1.
    9000005    2    1    2  501    0 -0.11761610247E+02  0.28569264297E+02 -0.35483325984E+03  0.35619015546E+03  0.32009716594E+01 0.  0.
         13    1    3    3    0    0 -0.36049995114E+00  0.17702312966E+01 -0.14266982567E+02  0.14380906461E+02  0.00000000000E+00 0.  1.
          3    1    3    3  501    0 -0.11401110296E+02  0.26799033001E+02 -0.34056627727E+03  0.34180924900E+03  0.00000000000E+00 0.  1.
         -1    1    1    2    0  502  0.11761610247E+02 -0.28569264297E+02 -0.64411802250E+03  0.64485856220E+03  0.00000000000E+00 0. -1.
<mgrwt>
<rscale>  1 0.30000000E+03</rscale>
<asrwt>0</asrwt>
<pdfrwt beam="1">  1       21 0.38135268E-02 0.30000000E+03</pdfrwt>
<pdfrwt beam="2">0</pdfrwt>
<totfact> 0.45563228E+04</totfact>
</mgrwt>
</event>
<event>
 6    1  0.1273846E-001  0.3000000E+03  0.7818608E-02  0.1093470E+00
         21   -1    0    0  501  502  0.00000000000E+00  0.00000000000E+00  0.17593784934E+01  0.17593784934E+01  0.00000000000E+00 0. -1.
         13   -1    0    0    0    0 -0.00000000000E+00 -0.00000000000E+00 -0.10000000000E+04  0.10000000000E+04  0.00000000000E+00 0.  1.
    9000005    2    1    2  501    0  0.13694183575E+02  0.38137906098E+02 -0.62509699646E+03  0.62642193637E+03  0.40195570971E+01 0.  0.
         13    1    3    3    0    0  0.91445658781E+01  0.19574861669E+02 -0.32796149564E+03  0.32867239147E+03  0.00000000000E+00 0.  1.
          1    1    3    3  501    0  0.45496176967E+01  0.18563044430E+02 -0.29713550082E+03  0.29774954490E+03  0.00000000000E+00 0.  1.
         -3    1    1    2    0  502 -0.13694183575E+02 -0.38137906098E+02 -0.37314362505E+03  0.37533744213E+03  0.00000000000E+00 0. -1.
<mgrwt>
<rscale>  1 0.30000000E+03</rscale>
<asrwt>0</asrwt>
<pdfrwt beam="1">  1       21 0.63977535E-02 0.30000000E+03</pdfrwt>
<pdfrwt beam="2">0</pdfrwt>
<totfact> 0.18860527E+04</totfact>
</mgrwt>
</event>
<event>
 6    1  0.1273846E-001  0.3000000E+03  0.7818608E-02  0.1093470E+00
         21   -1    0    0  501  502  0.00000000000E+00  0.00000000000E+00  0.63454121322E+01  0.63454121322E+01  0.00000000000E+00 0. -1.
         13   -1    0    0    0    0 -0.00000000000E+00 -0.00000000000E+00 -0.10000000000E+04  0.10000000000E+04  0.00000000000E+00 0.  1.
    9000005    2    1    2  501    0 -0.52765639911E+02 -0.57877380584E+02 -0.58230802872E+03  0.58760922351E+03  0.82435007538E+01 0.  0.
         13    1    3    3    0    0 -0.40221591643E+02 -0.46701805539E+02 -0.47791412736E+03  0.48187212848E+03  0.00000000000E+00 0.  1.
          1    1    3    3  501    0 -0.12544048268E+02 -0.11175575045E+02 -0.10439390136E+03  0.10573709504E+03  0.00000000000E+00 0.  1.
         -3    1    1    2    0  502  0.52765639911E+02  0.57877380584E+02 -0.41134655914E+03  0.41873618862E+03  0.00000000000E+00 0. -1.
<mgrwt>
<rscale>  1 0.30000000E+03</rscale>
<asrwt>0</asrwt>
<pdfrwt beam="1">  1       21 0.23074275E-01 0.30000000E+03</pdfrwt>
<pdfrwt beam="2">0</pdfrwt>
<totfact> 0.18228682E+03</totfact>
</mgrwt>
</event>
<event>
 6    1  0.1273846E-001  0.3000000E+03  0.7818608E-02  0.1093470E+00
         21   -1    0    0  501  502  0.00000000000E+00  0.00000000000E+00  0.13087916603E+01  0.13087916603E+01  0.00000000000E+00 0. -1.
         13   -1    0    0    0    0 -0.00000000000E+00 -0.00000000000E+00 -0.10000000000E+04  0.10000000000E+04  0.00000000000E+00 0.  1.
    9000005    2    1    2  501    0 -0.13058180323E+01 -0.35783148235E+02 -0.56310528879E+03  0.56425360960E+03  0.35257370515E+01 0.  0.
         13    1    3    3    0    0 -0.19245363612E+01 -0.27326200567E+02 -0.41065410981E+03  0.41156679043E+03  0.00000000000E+00 0.  1.
          1    1    3    3  501    0  0.61871832898E+00 -0.84569476680E+01 -0.15245117898E+03  0.15268681917E+03  0.00000000000E+00 0.  1.
         -3    1    1    2    0  502  0.13058180323E+01  0.35783148235E+02 -0.43558591955E+03  0.43705518206E+03  0.00000000000E+00 0. -1.
<mgrwt>
<rscale>  1 0.30000000E+03</rscale>
<asrwt>0</asrwt>
<pdfrwt beam="1">  1       21 0.47592524E-02 0.30000000E+03</pdfrwt>
<pdfrwt beam="2">0</pdfrwt>
<totfact> 0.31329675E+04</totfact>
</mgrwt>
</event>
<event>
 6    1  0.1273846E-001  0.3000000E+03  0.7818608E-02  0.1093470E+00
         21   -1    0    0  501  502  0.00000000000E+00  0.00000000000E+00  0.25407538433E+01  0.25407538433E+01  0.00000000000E+00 0. -1.
         13   -1    0    0    0    0 -0.00000000000E+00 -0.00000000000E+00 -0.10000000000E+04  0.10000000000E+04  0.00000000000E+00 0.  1.
    9000005    2    1    2  501    0  0.18613823362E+02 -0.40319349725E+02 -0.73551253043E+03  0.73685634281E+03  0.25422721810E+01 0.  0.
         13    1    3    3    0    0  0.18629484877E+02 -0.39691901105E+02 -0.72343673919E+03  0.72476425155E+03  0.00000000000E+00 0.  1.
          1    1    3    3  501    0 -0.15661515149E-01 -0.62744861938E+00 -0.12075791238E+02  0.12092091262E+02  0.00000000000E+00 0.  1.
         -1    1    1    2    0  502 -0.18613823362E+02  0.40319349725E+02 -0.26194671573E+03  0.26568441103E+03  0.00000000000E+00 0. -1.
<mgrwt>
<rscale>  1 0.30000000E+03</rscale>
<asrwt>0</asrwt>
<pdfrwt beam="1">  1       21 0.92391244E-02 0.30000000E+03</pdfrwt>
<pdfrwt beam="2">0</pdfrwt>
<totfact> 0.99064089E+03</totfact>
</mgrwt>
</event>
<event>
 6    1  0.1273846E-001  0.3000000E+03  0.7818608E-02  0.1093470E+00
         21   -1    0    0  501  502  0.00000000000E+00  0.00000000000E+00  0.14502269706E+01  0.14502269706E+01  0.00000000000E+00 0. -1.
         13   -1    0    0    0    0 -0.00000000000E+00 -0.00000000000E+00 -0.10000000000E+04  0.10000000000E+04  0.00000000000E+00 0.  1.
    9000005    2    1    2  501    0 -0.30946108431E+02  0.12793094543E+02 -0.73668603318E+03  0.73745412256E+03  0.33085504578E+01 0.  0.
         13    1    3    3    0    0 -0.14286095310E+02  0.57228130517E+01 -0.37478315146E+03  0.37509899191E+03  0.00000000000E+00 0.  1.
          3    1    3    3  501    0 -0.16660013121E+02  0.70702814912E+01 -0.36190288171E+03  0.36235513065E+03  0.00000000000E+00 0.  1.
         -3    1    1    2    0  502  0.30946108431E+02 -0.12793094543E+02 -0.26186373985E+03  0.26399610441E+03  0.00000000000E+00 0. -1.
<mgrwt>
<rscale>  1 0.30000000E+03</rscale>
<asrwt>0</asrwt>
<pdfrwt beam="1">  1       21 0.52735637E-02 0.30000000E+03</pdfrwt>
<pdfrwt beam="2">0</pdfrwt>
<totfact> 0.26300805E+04</totfact>
</mgrwt>
</event>
<event>
 6    1  0.1273846E-001  0.3000000E+03  0.7818608E-02  0.1093470E+00
         21   -1    0    0  501  502  0.00000000000E+00  0.00000000000E+00  0.16825493694E+01  0.16825493694E+01  0.00000000000E+00 0. -1.
         13   -1    0    0    0    0 -0.00000000000E+00 -0.00000000000E+00 -0.10000000000E+04  0.10000000000E+04  0.00000000000E+00 0.  1.
    9000005    2    1    2  501    0  0.19274196634E+02  0.26928524702E+02 -0.79416522541E+03  0.79486192380E+03  0.32299469731E+01 0.  0.
         13    1    3    3    0    0  0.13938288649E+02  0.21713863733E+02 -0.60805105894E+03  0.60859827312E+03  0.00000000000E+00 0.  1.
          1    1    3    3  501    0  0.53359079854E+01  0.52146609686E+01 -0.18611416647E+03  0.18626365068E+03  0.00000000000E+00 0.  1.
         -3    1    1    2    0  502 -0.19274196634E+02 -0.26928524702E+02 -0.20415222522E+03  0.20682062557E+03  0.00000000000E+00 0. -1.
<mgrwt>
<rscale>  1 0.30000000E+03</rscale>
<asrwt>0</asrwt>
<pdfrwt beam="1">  1       21 0.61183742E-02 0.30000000E+03</pdfrwt>
<pdfrwt beam="2">0</pdfrwt>
<totfact> 0.20373225E+04</totfact>
</mgrwt>
</event>
<event>
 6    1  0.1273846E-001  0.3000000E+03  0.7818608E-02  0.1093470E+00
         21   -1    0    0  501  502  0.00000000000E+00  0.00000000000E+00  0.15331866875E+01  0.15331866875E+01  0.00000000000E+00 0. -1.
         13   -1    0    0    0    0 -0.00000000000E+00 -0.00000000000E+00 -0.10000000000E+04  0.10000000000E+04  0.00000000000E+00 0.  1.
    9000005    2    1    2  501    0  0.77198476314E+01  0.37888964167E+02 -0.57281487732E+03  0.57412853034E+03  0.33935259432E+01 0.  0.
         13    1    3    3    0    0 -0.15640272908E+00  0.45980890071E+01 -0.71058790151E+02  0.71207573628E+02  0.00000000000E+00 0.  1.
          1    1    3    3  501    0  0.78762503605E+01  0.33290875160E+02 -0.50175608717E+03  0.50292095671E+03  0.00000000000E+00 0.  1.
         -3    1    1    2    0  502 -0.77198476314E+01 -0.37888964167E+02 -0.42565193599E+03  0.42740465635E+03  0.00000000000E+00 0. -1.
<mgrwt>
<rscale>  1 0.30000000E+03</rscale>
<asrwt>0</asrwt>
<pdfrwt beam="1">  1       21 0.55752361E-02 0.30000000E+03</pdfrwt>
<pdfrwt beam="2">0</pdfrwt>
<totfact> 0.23910292E+04</totfact>
</mgrwt>
</event>
<event>
 6    1  0.1273846E-001  0.3000000E+03  0.7818608E-02  0.1093470E+00
         21   -1    0    0  501  502  0.00000000000E+00  0.00000000000E+00  0.18471780445E+01  0.18471780445E+01  0.00000000000E+00 0. -1.
         13   -1    0    0    0    0 -0.00000000000E+00 -0.00000000000E+00 -0.10000000000E+04  0.10000000000E+04  0.00000000000E+00 0.  1.
    9000005    2    1    2  501    0 -0.30771524561E+02  0.22104855880E+02 -0.73470915560E+03  0.73569294321E+03  0.33244532961E+01 0.  0.
         13    1    3    3    0    0 -0.10422643941E+02  0.56201540644E+01 -0.22376540871E+03  0.22407850360E+03  0.00000000000E+00 0.  1.
          3    1    3    3  501    0 -0.20348880620E+02  0.16484701816E+02 -0.51094374689E+03  0.51161443962E+03  0.00000000000E+00 0.  1.
         -3    1    1    2    0  502  0.30771524561E+02 -0.22104855880E+02 -0.26344366635E+03  0.26615423483E+03  0.00000000000E+00 0. -1.
<mgrwt>
<rscale>  1 0.30000000E+03</rscale>
<asrwt>0</asrwt>
<pdfrwt beam="1">  1       21 0.67170252E-02 0.30000000E+03</pdfrwt>
<pdfrwt beam="2">0</pdfrwt>
<totfact> 0.17334691E+04</totfact>
</mgrwt>
</event>
<event>
 6    1  0.1273846E-001  0.3000000E+03  0.7818608E-02  0.1093470E+00
         21   -1    0    0  501  502  0.00000000000E+00  0.00000000000E+00  0.30431508078E+01  0.30431508078E+01  0.00000000000E+00 0. -1.
         13   -1    0    0    0    0 -0.00000000000E+00 -0.00000000000E+00 -0.10000000000E+04  0.10000000000E+04  0.00000000000E+00 0.  1.
    9000005    2    1    2  501    0  0.35597300160E+02 -0.16708451063E+02 -0.84987546965E+03  0.85079574583E+03  0.43297906781E+01 0.  0.
         13    1    3    3    0    0  0.19202300425E+01  0.97710017460E-01 -0.42504447552E+02  0.42547912903E+02  0.00000000000E+00 0.  1.
          1    1    3    3  501    0  0.33677070117E+02 -0.16806161081E+02 -0.80737102210E+03  0.80824783293E+03  0.00000000000E+00 0.  1.
         -3    1    1    2    0  502 -0.35597300160E+02  0.16708451063E+02 -0.14708137954E+03  0.15224740498E+03  0.00000000000E+00 0. -1.
<mgrwt>
<rscale>  1 0.30000000E+03</rscale>
<asrwt>0</asrwt>
<pdfrwt beam="1">  1       21 0.11066026E-01 0.30000000E+03</pdfrwt>
<pdfrwt beam="2">0</pdfrwt>
<totfact> 0.71743405E+03</totfact>
</mgrwt>
</event>
<event>
 6    1  0.1273846E-001  0.3000000E+03  0.7818608E-02  0.1093470E+00
         21   -1    0    0  501  502  0.00000000000E+00  0.00000000000E+00  0.15485835781E+01  0.15485835781E+01  0.00000000000E+00 0. -1.
         13   -1    0    0    0    0 -0.00000000000E+00 -0.00000000000E+00 -0.10000000000E+04  0.10000000000E+04  0.00000000000E+00 0.  1.
    9000005    2    1    2  501    0  0.10700400045E+02  0.28251749888E+02 -0.81968754907E+03  0.82024998953E+03  0.31156527960E+01 0.  0.
         13    1    3    3    0    0  0.11330006632E+00  0.69747255850E+00 -0.35590855099E+02  0.35597868919E+02  0.00000000000E+00 0.  1.
          3    1    3    3  501    0  0.10587099979E+02  0.27554277329E+02 -0.78409669397E+03  0.78465212061E+03  0.00000000000E+00 0.  1.
         -1    1    1    2    0  502 -0.10700400045E+02 -0.28251749888E+02 -0.17876386735E+03  0.18129859404E+03  0.00000000000E+00 0. -1.
<mgrwt>
<rscale>  1 0.30000000E+03</rscale>
<asrwt>0</asrwt>
<pdfrwt beam="1">  1       21 0.56312249E-02 0.30000000E+03</pdfrwt>
<pdfrwt beam="2">0</pdfrwt>
<totfact> 0.23503538E+04</totfact>
</mgrwt>
</event>
<event>
 6    1  0.1273846E-001  0.3000000E+03  0.7818608E-02  0.1093470E+00
         21   -1    0    0  501  502  0.00000000000E+00  0.00000000000E+00  0.61110678419E+01  0.61110678419E+01  0.00000000000E+00 0. -1.
         13   -1    0    0    0    0 -0.00000000000E+00 -0.00000000000E+00 -0.10000000000E+04  0.10000000000E+04  0.00000000000E+00 0.  1.
    9000005    2    1    2  501    0  0.44075791980E+02  0.40487237617E+02 -0.82046955521E+03  0.82265488193E+03  0.29785713010E+01 0.  0.
         13    1    3    3    0    0  0.25563148312E+02  0.24428789741E+02 -0.50213724731E+03  0.50338062682E+03  0.00000000000E+00 0.  1.
          3    1    3    3  501    0  0.18512643668E+02  0.16058447876E+02 -0.31833230791E+03  0.31927425512E+03  0.00000000000E+00 0.  1.
         -3    1    1    2    0  502 -0.44075791980E+02 -0.40487237617E+02 -0.17341937694E+03  0.18345618591E+03  0.00000000000E+00 0. -1.
<mgrwt>
<rscale>  1 0.30000000E+03</rscale>
<asrwt>0</asrwt>
<pdfrwt beam="1">  1       21 0.22222112E-01 0.30000000E+03</pdfrwt>
<pdfrwt beam="2">0</pdfrwt>
<totfact> 0.19602897E+03</totfact>
</mgrwt>
</event>
<event>
 6    1  0.1273846E-001  0.3000000E+03  0.7818608E-02  0.1093470E+00
         21   -1    0    0  501  502  0.00000000000E+00  0.00000000000E+00  0.21252521819E+01  0.21252521819E+01  0.00000000000E+00 0. -1.
         13   -1    0    0    0    0 -0.00000000000E+00 -0.00000000000E+00 -0.10000000000E+04  0.10000000000E+04  0.00000000000E+00 0.  1.
    9000005    2    1    2  501    0  0.36059892306E+02  0.18029964165E+02 -0.74043064687E+03  0.74154347892E+03  0.48777936141E+01 0.  0.
         13    1    3    3    0    0  0.29849206488E+02  0.15026396656E+02 -0.57654076030E+03  0.57750845535E+03  0.00000000000E+00 0.  1.
          3    1    3    3  501    0  0.62106858183E+01  0.30035675085E+01 -0.16388988657E+03  0.16403502357E+03  0.00000000000E+00 0.  1.
         -3    1    1    2    0  502 -0.36059892306E+02 -0.18029964165E+02 -0.25744410095E+03  0.26058177326E+03  0.00000000000E+00 0. -1.
<mgrwt>
<rscale>  1 0.30000000E+03</rscale>
<asrwt>0</asrwt>
<pdfrwt beam="1">  1       21 0.77282060E-02 0.30000000E+03</pdfrwt>
<pdfrwt beam="2">0</pdfrwt>
<totfact> 0.13572647E+04</totfact>
</mgrwt>
</event>
<event>
 6    1  0.1273846E-001  0.3000000E+03  0.7818608E-02  0.1093470E+00
         21   -1    0    0  501  502  0.00000000000E+00  0.00000000000E+00  0.35032961591E+01  0.35032961591E+01  0.00000000000E+00 0. -1.
         13   -1    0    0    0    0 -0.00000000000E+00 -0.00000000000E+00 -0.10000000000E+04  0.10000000000E+04  0.00000000000E+00 0.  1.
    9000005    2    1    2  501    0  0.27103917945E+02  0.25674811995E+02 -0.88749080469E+03  0.88828131740E+03  0.31546946305E+01 0.  0.
         13    1    3    3    0    0  0.18531227799E+02  0.17997079230E+02 -0.57911769588E+03  0.57969354572E+03  0.00000000000E+00 0.  1.
          1    1    3    3  501    0  0.85726901457E+01  0.76777327654E+01 -0.30837310880E+03  0.30858777168E+03  0.00000000000E+00 0.  1.
         -3    1    1    2    0  502 -0.27103917945E+02 -0.25674811995E+02 -0.10900589915E+03  0.11522197876E+03  0.00000000000E+00 0. -1.
<mgrwt>
<rscale>  1 0.30000000E+03</rscale>
<asrwt>0</asrwt>
<pdfrwt beam="1">  1       21 0.12739286E-01 0.30000000E+03</pdfrwt>
<pdfrwt beam="2">0</pdfrwt>
<totfact> 0.55582570E+03</totfact>
</mgrwt>
</event>
<event>
 6    1  0.1273846E-001  0.3000000E+03  0.7818608E-02  0.1093470E+00
         21   -1    0    0  501  502  0.00000000000E+00  0.00000000000E+00  0.52090877515E+01  0.52090877515E+01  0.00000000000E+00 0. -1.
         13   -1    0    0    0    0 -0.00000000000E+00 -0.00000000000E+00 -0.10000000000E+04  0.10000000000E+04  0.00000000000E+00 0.  1.
    9000005    2    1    2  501    0  0.12525518332E+02  0.39741956387E+02 -0.90770609000E+03  0.90866853683E+03  0.34427150609E+01 0.  0.
         13    1    3    3    0    0  0.79434123780E+01  0.29277116064E+02 -0.63878946819E+03  0.63950936819E+03  0.00000000000E+00 0.  1.
          3    1    3    3  501    0  0.45821059539E+01  0.10464840323E+02 -0.26891662181E+03  0.26915916864E+03  0.00000000000E+00 0.  1.
         -1    1    1    2    0  502 -0.12525518332E+02 -0.39741956387E+02 -0.87084822246E+02  0.96540550924E+02  0.00000000000E+00 0. -1.
<mgrwt>
<rscale>  1 0.30000000E+03</rscale>
<asrwt>0</asrwt>
<pdfrwt beam="1">  1       21 0.18942177E-01 0.30000000E+03</pdfrwt>
<pdfrwt beam="2">0</pdfrwt>
<totfact> 0.26604109E+03</totfact>
</mgrwt>
</event>
<event>
 6    1  0.1273846E-001  0.3000000E+03  0.7818608E-02  0.1093470E+00
         21   -1    0    0  501  502  0.00000000000E+00  0.00000000000E+00  0.15830708921E+02  0.15830708921E+02  0.00000000000E+00 0. -1.
         13   -1    0    0    0    0 -0.00000000000E+00 -0.00000000000E+00 -0.10000000000E+04  0.10000000000E+04  0.00000000000E+00 0.  1.
    9000005    2    1    2  501    0  0.43082270053E+02  0.23674473486E+02 -0.95958574644E+03  0.96086787280E+03  0.67602899785E+01 0.  0.
         13    1    3    3    0    0  0.41393433676E+02  0.24011947074E+02 -0.93298630380E+03  0.93421273436E+03  0.00000000000E+00 0.  1.
          1    1    3    3  501    0  0.16888363765E+01 -0.33747358806E+00 -0.26599442632E+02  0.26655138436E+02  0.00000000000E+00 0.  1.
         -1    1    1    2    0  502 -0.43082270053E+02 -0.23674473486E+02 -0.24583544643E+02  0.54962836125E+02  0.00000000000E+00 0. -1.
<mgrwt>
<rscale>  1 0.30000000E+03</rscale>
<asrwt>0</asrwt>
<pdfrwt beam="1">  1       21 0.57566336E-01 0.30000000E+03</pdfrwt>
<pdfrwt beam="2">0</pdfrwt>
<totfact> 0.27550714E+02</totfact>
</mgrwt>
</event>
<event>
 6    1  0.1273846E-001  0.3000000E+03  0.7818608E-02  0.1093470E+00
         21   -1    0    0  501  502  0.00000000000E+00  0.00000000000E+00  0.10830655974E+01  0.10830655974E+01  0.00000000000E+00 0. -1.
         13   -1    0    0    0    0 -0.00000000000E+00 -0.00000000000E+00 -0.10000000000E+04  0.10000000000E+04  0.00000000000E+00 0.  1.
    9000005    2    1    2  501    0 -0.17639655893E+02 -0.25312314663E+02 -0.66991999195E+03  0.67064266420E+03  0.41129909999E+01 0.  0.
         13    1    3    3    0    0 -0.10390017042E+02 -0.14449086846E+02 -0.42892110101E+03  0.42929015765E+03  0.00000000000E+00 0.  1.
          3    1    3    3  501    0 -0.72496388517E+01 -0.10863227817E+02 -0.24099889094E+03  0.24135250655E+03  0.00000000000E+00 0.  1.
         -3    1    1    2    0  502  0.17639655893E+02  0.25312314663E+02 -0.32899694245E+03  0.33044040140E+03  0.00000000000E+00 0. -1.
<mgrwt>
<rscale>  1 0.30000000E+03</rscale>
<asrwt>0</asrwt>
<pdfrwt beam="1">  1       21 0.39384287E-02 0.30000000E+03</pdfrwt>
<pdfrwt beam="2">0</pdfrwt>
<totfact> 0.43159793E+04</totfact>
</mgrwt>
</event>
<event>
 6    1  0.1273846E-001  0.3000000E+03  0.7818608E-02  0.1093470E+00
         21   -1    0    0  501  502  0.00000000000E+00  0.00000000000E+00  0.16825633565E+01  0.16825633565E+01  0.00000000000E+00 0. -1.
         13   -1    0    0    0    0 -0.00000000000E+00 -0.00000000000E+00 -0.10000000000E+04  0.10000000000E+04  0.00000000000E+00 0.  1.
    9000005    2    1    2  501    0  0.16640488676E+02 -0.37226379699E+02 -0.54639362777E+03  0.54792289323E+03  0.32850032412E+01 0.  0.
         13    1    3    3    0    0  0.11800169376E+01 -0.11294268231E+01 -0.23815925488E+02  0.23871873654E+02  0.00000000000E+00 0.  1.
          3    1    3    3  501    0  0.15460471738E+02 -0.36096952876E+02 -0.52257770229E+03  0.52405101958E+03  0.00000000000E+00 0.  1.
         -3    1    1    2    0  502 -0.16640488676E+02  0.37226379699E+02 -0.45192380887E+03  0.45375967012E+03  0.00000000000E+00 0. -1.
<mgrwt>
<rscale>  1 0.30000000E+03</rscale>
<asrwt>0</asrwt>
<pdfrwt beam="1">  1       21 0.61184251E-02 0.30000000E+03</pdfrwt>
<pdfrwt beam="2">0</pdfrwt>
<totfact> 0.20372933E+04</totfact>
</mgrwt>
</event>
<event>
 6    1  0.1273846E-001  0.3000000E+03  0.7818608E-02  0.1093470E+00
         21   -1    0    0  501  502  0.00000000000E+00  0.00000000000E+00  0.24871638790E+01  0.24871638790E+01  0.00000000000E+00 0. -1.
         13   -1    0    0    0    0 -0.00000000000E+00 -0.00000000000E+00 -0.10000000000E+04  0.10000000000E+04  0.00000000000E+00 0.  1.
    9000005    2    1    2  501    0 -0.10538006001E+02 -0.47982137448E+02 -0.58282559603E+03  0.58490023619E+03  0.30456230938E+01 0.  0.
         13    1    3    3    0    0 -0.52471272831E+01 -0.24083411504E+02 -0.27433386827E+03  0.27543894847E+03  0.00000000000E+00 0.  1.
          1    1    3    3  501    0 -0.52908787180E+01 -0.23898725944E+02 -0.30849172776E+03  0.30946128772E+03  0.00000000000E+00 0.  1.
         -1    1    1    2    0  502  0.10538006001E+02  0.47982137448E+02 -0.41468724009E+03  0.41758692769E+03  0.00000000000E+00 0. -1.
<mgrwt>
<rscale>  1 0.30000000E+03</rscale>
<asrwt>0</asrwt>
<pdfrwt beam="1">  1       21 0.90442514E-02 0.30000000E+03</pdfrwt>
<pdfrwt beam="2">0</pdfrwt>
<totfact> 0.10288279E+04</totfact>
</mgrwt>
</event>
<event>
 6    1  0.1273846E-001  0.3000000E+03  0.7818608E-02  0.1093470E+00
         21   -1    0    0  501  502  0.00000000000E+00  0.00000000000E+00  0.28045797989E+01  0.28045797989E+01  0.00000000000E+00 0. -1.
         13   -1    0    0    0    0 -0.00000000000E+00 -0.00000000000E+00 -0.10000000000E+04  0.10000000000E+04  0.00000000000E+00 0.  1.
    9000005    2    1    2  501    0 -0.45571865714E+02  0.10674939693E+01 -0.75064592297E+03  0.75207646196E+03  0.84716280055E+01 0.  0.
         13    1    3    3    0    0 -0.10552438449E+02  0.11871036923E+01 -0.12452139779E+03  0.12497336388E+03  0.00000000000E+00 0.  1.
          3    1    3    3  501    0 -0.35019427265E+02 -0.11960972299E+00 -0.62612452517E+03  0.62710309808E+03  0.00000000000E+00 0.  1.
         -1    1    1    2    0  502  0.45571865714E+02 -0.10674939693E+01 -0.24654949723E+03  0.25072811784E+03  0.00000000000E+00 0. -1.
<mgrwt>
<rscale>  1 0.30000000E+03</rscale>
<asrwt>0</asrwt>
<pdfrwt beam="1">  1       21 0.10198494E-01 0.30000000E+03</pdfrwt>
<pdfrwt beam="2">0</pdfrwt>
<totfact> 0.83061213E+03</totfact>
</mgrwt>
</event>
<event>
 6    1  0.1273846E-001  0.3000000E+03  0.7818608E-02  0.1093470E+00
         21   -1    0    0  501  502  0.00000000000E+00  0.00000000000E+00  0.14399002466E+01  0.14399002466E+01  0.00000000000E+00 0. -1.
         13   -1    0    0    0    0 -0.00000000000E+00 -0.00000000000E+00 -0.10000000000E+04  0.10000000000E+04  0.00000000000E+00 0.  1.
    9000005    2    1    2  501    0 -0.27061986990E+01 -0.33000387674E+02 -0.74290180880E+03  0.74364635721E+03  0.32338793538E+01 0.  0.
         13    1    3    3    0    0 -0.37479490358E-01 -0.19202703136E+02 -0.41882675435E+03  0.41926673535E+03  0.00000000000E+00 0.  1.
          1    1    3    3  501    0 -0.26687192086E+01 -0.13797684538E+02 -0.32407505445E+03  0.32437962186E+03  0.00000000000E+00 0.  1.
         -1    1    1    2    0  502  0.27061986990E+01  0.33000387674E+02 -0.25565829095E+03  0.25779354304E+03  0.00000000000E+00 0. -1.
<mgrwt>
<rscale>  1 0.30000000E+03</rscale>
<asrwt>0</asrwt>
<pdfrwt beam="1">  1       21 0.52360119E-02 0.30000000E+03</pdfrwt>
<pdfrwt beam="2">0</pdfrwt>
<totfact> 0.26624061E+04</totfact>
</mgrwt>
</event>
<event>
 6    1  0.1273846E-001  0.3000000E+03  0.7818608E-02  0.1093470E+00
         21   -1    0    0  501  502  0.00000000000E+00  0.00000000000E+00  0.15617791526E+01  0.15617791526E+01  0.00000000000E+00 0. -1.
         13   -1    0    0    0    0 -0.00000000000E+00 -0.00000000000E+00 -0.10000000000E+04  0.10000000000E+04  0.00000000000E+00 0.  1.
    9000005    2    1    2  501    0  0.30863010285E+02 -0.14099073935E+02 -0.75546455179E+03  0.75623034386E+03  0.25168764579E+01 0.  0.
         13    1    3    3    0    0  0.25297805300E+02 -0.12567988347E+02 -0.62261778859E+03  0.62325824821E+03  0.00000000000E+00 0.  1.
          3    1    3    3  501    0  0.55652049848E+01 -0.15310855878E+01 -0.13284676320E+03  0.13297209565E+03  0.00000000000E+00 0.  1.
         -3    1    1    2    0  502 -0.30863010285E+02  0.14099073935E+02 -0.24297366905E+03  0.24533143529E+03  0.00000000000E+00 0. -1.
<mgrwt>
<rscale>  1 0.30000000E+03</rscale>
<asrwt>0</asrwt>
<pdfrwt beam="1">  1       21 0.56792089E-02 0.30000000E+03</pdfrwt>
<pdfrwt beam="2">0</pdfrwt>
<totfact> 0.23163330E+04</totfact>
</mgrwt>
</event>
<event>
 6    1  0.1273846E-001  0.3000000E+03  0.7818608E-02  0.1093470E+00
         21   -1    0    0  501  502  0.00000000000E+00  0.00000000000E+00  0.29174223945E+01  0.29174223945E+01  0.00000000000E+00 0. -1.
         13   -1    0    0    0    0 -0.00000000000E+00 -0.00000000000E+00 -0.10000000000E+04  0.10000000000E+04  0.00000000000E+00 0.  1.
    9000005    2    1    2  501    0  0.12807581082E+02 -0.38719542278E+02 -0.82714839632E+03  0.82815797900E+03  0.28163015488E+01 0.  0.
         13    1    3    3    0    0  0.75346057769E+01 -0.24012311511E+02 -0.53650971960E+03  0.53709965613E+03  0.00000000000E+00 0.  1.
          3    1    3    3  501    0  0.52729753048E+01 -0.14707230766E+02 -0.29063867672E+03  0.29105832287E+03  0.00000000000E+00 0.  1.
         -1    1    1    2    0  502 -0.12807581082E+02  0.38719542278E+02 -0.16993418128E+03  0.17475944339E+03  0.00000000000E+00 0. -1.
<mgrwt>
<rscale>  1 0.30000000E+03</rscale>
<asrwt>0</asrwt>
<pdfrwt beam="1">  1       21 0.10608831E-01 0.30000000E+03</pdfrwt>
<pdfrwt beam="2">0</pdfrwt>
<totfact> 0.77394278E+03</totfact>
</mgrwt>
</event>
<event>
 6    1  0.1273846E-001  0.3000000E+03  0.7818608E-02  0.1093470E+00
         21   -1    0    0  501  502  0.00000000000E+00  0.00000000000E+00  0.74119085418E+01  0.74119085418E+01  0.00000000000E+00 0. -1.
         13   -1    0    0    0    0 -0.00000000000E+00 -0.00000000000E+00 -0.10000000000E+04  0.10000000000E+04  0.00000000000E+00 0.  1.
    9000005    2    1    2  501    0 -0.67668651771E+02  0.31375161516E+02 -0.74765020400E+03  0.75136891234E+03  0.33117508190E+01 0.  0.
         13    1    3    3    0    0 -0.29716019467E+02  0.12480658005E+02 -0.33445178965E+03  0.33600120273E+03  0.00000000000E+00 0.  1.
          1    1    3    3  501    0 -0.37952632304E+02  0.18894503511E+02 -0.41319841436E+03  0.41536770961E+03  0.00000000000E+00 0.  1.
         -1    1    1    2    0  502  0.67668651771E+02 -0.31375161516E+02 -0.24493788745E+03  0.25604299620E+03  0.00000000000E+00 0. -1.
<mgrwt>
<rscale>  1 0.30000000E+03</rscale>
<asrwt>0</asrwt>
<pdfrwt beam="1">  1       21 0.26952452E-01 0.30000000E+03</pdfrwt>
<pdfrwt beam="2">0</pdfrwt>
<totfact> 0.13451517E+03</totfact>
</mgrwt>
</event>
<event>
 6    1  0.1273846E-001  0.3000000E+03  0.7818608E-02  0.1093470E+00
         21   -1    0    0  501  502  0.00000000000E+00  0.00000000000E+00  0.54832003447E+01  0.54832003447E+01  0.00000000000E+00 0. -1.
         13   -1    0    0    0    0 -0.00000000000E+00 -0.00000000000E+00 -0.10000000000E+04  0.10000000000E+04  0.00000000000E+00 0.  1.
    9000005    2    1    2  501    0 -0.40111755912E+02 -0.86622168398E+01 -0.91568463892E+03  0.91660971426E+03  0.33201440448E+01 0.  0.
         13    1    3    3    0    0 -0.12231676377E+02 -0.31022570431E+01 -0.31516397258E+03  0.31541649849E+03  0.00000000000E+00 0.  1.
          1    1    3    3  501    0 -0.27880079535E+02 -0.55599597968E+01 -0.60052066633E+03  0.60119321577E+03  0.00000000000E+00 0.  1.
         -1    1    1    2    0  502  0.40111755912E+02  0.86622168398E+01 -0.78832160736E+02  0.88873486087E+02  0.00000000000E+00 0. -1.
<mgrwt>
<rscale>  1 0.30000000E+03</rscale>
<asrwt>0</asrwt>
<pdfrwt beam="1">  1       21 0.19938952E-01 0.30000000E+03</pdfrwt>
<pdfrwt beam="2">0</pdfrwt>
<totfact> 0.24132615E+03</totfact>
</mgrwt>
</event>
<event>
 6    1  0.1273846E-001  0.3000000E+03  0.7818608E-02  0.1093470E+00
         21   -1    0    0  501  502  0.00000000000E+00  0.00000000000E+00  0.93527476866E+00  0.93527476866E+00  0.00000000000E+00 0. -1.
         13   -1    0    0    0    0 -0.00000000000E+00 -0.00000000000E+00 -0.10000000000E+04  0.10000000000E+04  0.00000000000E+00 0.  1.
    9000005    2    1    2  501    0  0.67722304877E+00 -0.30413125511E+02 -0.51988268513E+03  0.52078858428E+03  0.41624969507E+01 0.  0.
         13    1    3    3    0    0  0.37672640663E+00 -0.20268569864E+02 -0.37815650075E+03  0.37869947967E+03  0.00000000000E+00 0.  1.
          1    1    3    3  501    0  0.30049664214E+00 -0.10144555647E+02 -0.14172618439E+03  0.14208910461E+03  0.00000000000E+00 0.  1.
         -1    1    1    2    0  502 -0.67722304877E+00  0.30413125511E+02 -0.47918204010E+03  0.48014669049E+03  0.00000000000E+00 0. -1.
<mgrwt>
<rscale>  1 0.30000000E+03</rscale>
<asrwt>0</asrwt>
<pdfrwt beam="1">  1       21 0.34010063E-02 0.30000000E+03</pdfrwt>
<pdfrwt beam="2">0</pdfrwt>
<totfact> 0.55203713E+04</totfact>
</mgrwt>
</event>
<event>
 6    1  0.1273846E-001  0.3000000E+03  0.7818608E-02  0.1093470E+00
         21   -1    0    0  501  502  0.00000000000E+00  0.00000000000E+00  0.35890426661E+01  0.35890426661E+01  0.00000000000E+00 0. -1.
         13   -1    0    0    0    0 -0.00000000000E+00 -0.00000000000E+00 -0.10000000000E+04  0.10000000000E+04  0.00000000000E+00 0.  1.
    9000005    2    1    2  501    0  0.12029876605E+02 -0.33459494633E+02 -0.90196251347E+03  0.90266944962E+03  0.33917341093E+01 0.  0.
         13    1    3    3    0    0  0.11920920329E+02 -0.33531278419E+02 -0.89871287410E+03  0.89941719188E+03  0.00000000000E+00 0.  1.
          1    1    3    3  501    0  0.10895627650E+00  0.71783785677E-01 -0.32496393676E+01  0.32522577391E+01  0.00000000000E+00 0.  1.
         -3    1    1    2    0  502 -0.12029876605E+02  0.33459494633E+02 -0.94448443862E+02  0.10091959304E+03  0.00000000000E+00 0. -1.
<mgrwt>
<rscale>  1 0.30000000E+03</rscale>
<asrwt>0</asrwt>
<pdfrwt beam="1">  1       21 0.13051092E-01 0.30000000E+03</pdfrwt>
<pdfrwt beam="2">0</pdfrwt>
<totfact> 0.53182876E+03</totfact>
</mgrwt>
</event>
<event>
 6    1  0.1273846E-001  0.3000000E+03  0.7818608E-02  0.1093470E+00
         21   -1    0    0  501  502  0.00000000000E+00  0.00000000000E+00  0.48211430264E+01  0.48211430264E+01  0.00000000000E+00 0. -1.
         13   -1    0    0    0    0 -0.00000000000E+00 -0.00000000000E+00 -0.10000000000E+04  0.10000000000E+04  0.00000000000E+00 0.  1.
    9000005    2    1    2  501    0  0.77718336836E+01  0.42074043502E+02 -0.89320821518E+03  0.89423796924E+03  0.31628218941E+01 0.  0.
         13    1    3    3    0    0  0.64444544593E+01  0.29844990567E+02 -0.61317043375E+03  0.61393015505E+03  0.00000000000E+00 0.  1.
          1    1    3    3  501    0  0.13273792243E+01  0.12229052935E+02 -0.28003778143E+03  0.28030781420E+03  0.00000000000E+00 0.  1.
         -1    1    1    2    0  502 -0.77718336836E+01 -0.42074043502E+02 -0.10197064180E+03  0.11058317378E+03  0.00000000000E+00 0. -1.
<mgrwt>
<rscale>  1 0.30000000E+03</rscale>
<asrwt>0</asrwt>
<pdfrwt beam="1">  1       21 0.17531466E-01 0.30000000E+03</pdfrwt>
<pdfrwt beam="2">0</pdfrwt>
<totfact> 0.30785399E+03</totfact>
</mgrwt>
</event>
<event>
 6    1  0.1273846E-001  0.3000000E+03  0.7818608E-02  0.1093470E+00
         21   -1    0    0  501  502  0.00000000000E+00  0.00000000000E+00  0.19350868836E+01  0.19350868836E+01  0.00000000000E+00 0. -1.
         13   -1    0    0    0    0 -0.00000000000E+00 -0.00000000000E+00 -0.10000000000E+04  0.10000000000E+04  0.00000000000E+00 0.  1.
    9000005    2    1    2  501    0 -0.30474438559E+01  0.32969595106E+02 -0.82847250901E+03  0.82914080270E+03  0.33898972368E+01 0.  0.
         13    1    3    3    0    0 -0.30292128114E+01  0.27251019966E+02 -0.65374581293E+03  0.65432055000E+03  0.00000000000E+00 0.  1.
          1    1    3    3  501    0 -0.18231044433E-01  0.57185751400E+01 -0.17472669608E+03  0.17482025270E+03  0.00000000000E+00 0.  1.
         -3    1    1    2    0  502  0.30474438559E+01 -0.32969595106E+02 -0.16959240411E+03  0.17279428418E+03  0.00000000000E+00 0. -1.
<mgrwt>
<rscale>  1 0.30000000E+03</rscale>
<asrwt>0</asrwt>
<pdfrwt beam="1">  1       21 0.70366944E-02 0.30000000E+03</pdfrwt>
<pdfrwt beam="2">0</pdfrwt>
<totfact> 0.15989105E+04</totfact>
</mgrwt>
</event>
<event>
 6    1  0.1273846E-001  0.3000000E+03  0.7818608E-02  0.1093470E+00
         21   -1    0    0  501  502  0.00000000000E+00  0.00000000000E+00  0.19422305817E+01  0.19422305817E+01  0.00000000000E+00 0. -1.
         13   -1    0    0    0    0 -0.00000000000E+00 -0.00000000000E+00 -0.10000000000E+04  0.10000000000E+04  0.00000000000E+00 0.  1.
    9000005    2    1    2  501    0  0.19952140863E+02 -0.31792156177E+02 -0.76093890203E+03  0.76187101950E+03  0.32570860757E+01 0.  0.
         13    1    3    3    0    0  0.16273924352E+02 -0.24707416892E+02 -0.62154870745E+03  0.62225243495E+03  0.00000000000E+00 0.  1.
          1    1    3    3  501    0  0.36782165109E+01 -0.70847392852E+01 -0.13939019458E+03  0.13961858455E+03  0.00000000000E+00 0.  1.
         -1    1    1    2    0  502 -0.19952140863E+02  0.31792156177E+02 -0.23711886739E+03  0.24007121109E+03  0.00000000000E+00 0. -1.
<mgrwt>
<rscale>  1 0.30000000E+03</rscale>
<asrwt>0</asrwt>
<pdfrwt beam="1">  1       21 0.70626716E-02 0.30000000E+03</pdfrwt>
<pdfrwt beam="2">0</pdfrwt>
<totfact> 0.15886838E+04</totfact>
</mgrwt>
</event>
<event>
 6    1  0.1273846E-001  0.3000000E+03  0.7818608E-02  0.1093470E+00
         21   -1    0    0  501  502  0.00000000000E+00  0.00000000000E+00  0.19666695502E+01  0.19666695502E+01  0.00000000000E+00 0. -1.
         13   -1    0    0    0    0 -0.00000000000E+00 -0.00000000000E+00 -0.10000000000E+04  0.10000000000E+04  0.00000000000E+00 0.  1.
    9000005    2    1    2  501    0 -0.43022830835E+02 -0.10670587099E+01 -0.61788778219E+03  0.61939283295E+03  0.31729396207E+01 0.  0.
         13    1    3    3    0    0 -0.77023426928E+01 -0.68688081419E+00 -0.95875137015E+02  0.96186484424E+02  0.00000000000E+00 0.  1.
          3    1    3    3  501    0 -0.35320488142E+02 -0.38017789571E+00 -0.52201264517E+03  0.52320634853E+03  0.00000000000E+00 0.  1.
         -3    1    1    2    0  502  0.43022830835E+02  0.10670587099E+01 -0.38014554826E+03  0.38257383660E+03  0.00000000000E+00 0. -1.
<mgrwt>
<rscale>  1 0.30000000E+03</rscale>
<asrwt>0</asrwt>
<pdfrwt beam="1">  1       21 0.71515407E-02 0.30000000E+03</pdfrwt>
<pdfrwt beam="2">0</pdfrwt>
<totfact> 0.15544416E+04</totfact>
</mgrwt>
</event>
<event>
 6    1  0.1273846E-001  0.3000000E+03  0.7818608E-02  0.1093470E+00
         21   -1    0    0  501  502  0.00000000000E+00  0.00000000000E+00  0.11049581908E+01  0.11049581908E+01  0.00000000000E+00 0. -1.
         13   -1    0    0    0    0 -0.00000000000E+00 -0.00000000000E+00 -0.10000000000E+04  0.10000000000E+04  0.00000000000E+00 0.  1.
    9000005    2    1    2  501    0 -0.30635525302E+02  0.12689919700E+02 -0.52199094527E+03  0.52304943133E+03  0.25673316016E+01 0.  0.
         13    1    3    3    0    0 -0.94438559557E+01  0.29896474680E+01 -0.14327177724E+03  0.14361381048E+03  0.00000000000E+00 0.  1.
          1    1    3    3  501    0 -0.21191669346E+02  0.97002722320E+01 -0.37871916803E+03  0.37943562084E+03  0.00000000000E+00 0.  1.
         -3    1    1    2    0  502  0.30635525302E+02 -0.12689919700E+02 -0.47690409654E+03  0.47805552687E+03  0.00000000000E+00 0. -1.
<mgrwt>
<rscale>  1 0.30000000E+03</rscale>
<asrwt>0</asrwt>
<pdfrwt beam="1">  1       21 0.40180383E-02 0.30000000E+03</pdfrwt>
<pdfrwt beam="2">0</pdfrwt>
<totfact> 0.41729891E+04</totfact>
</mgrwt>
</event>
<event>
 6    1  0.1273846E-001  0.3000000E+03  0.7818608E-02  0.1093470E+00
         21   -1    0    0  501  502  0.00000000000E+00  0.00000000000E+00  0.13166558613E+01  0.13166558613E+01  0.00000000000E+00 0. -1.
         13   -1    0    0    0    0 -0.00000000000E+00 -0.00000000000E+00 -0.10000000000E+04  0.10000000000E+04  0.00000000000E+00 0.  1.
    9000005    2    1    2  501    0  0.12691191844E+02  0.27344455358E+02 -0.22332907544E+03  0.22537656309E+03  0.31517711911E+01 0.  0.
         13    1    3    3    0    0  0.15199833913E+01  0.16216737088E+01 -0.19850638835E+02  0.19974684911E+02  0.00000000000E+00 0.  1.
          3    1    3    3  501    0  0.11171208453E+02  0.25722781649E+02 -0.20347843661E+03  0.20540187817E+03  0.00000000000E+00 0.  1.
         -3    1    1    2    0  502 -0.12691191844E+02 -0.27344455358E+02 -0.77535426870E+03  0.77594009278E+03  0.00000000000E+00 0. -1.
<mgrwt>
<rscale>  1 0.30000000E+03</rscale>
<asrwt>0</asrwt>
<pdfrwt beam="1">  1       21 0.47878496E-02 0.30000000E+03</pdfrwt>
<pdfrwt beam="2">0</pdfrwt>
<totfact> 0.31011995E+04</totfact>
</mgrwt>
</event>
<event>
 6    1  0.1273846E-001  0.3000000E+03  0.7818608E-02  0.1093470E+00
         21   -1    0    0  501  502  0.00000000000E+00  0.00000000000E+00  0.24859550974E+01  0.24859550974E+01  0.00000000000E+00 0. -1.
         13   -1    0    0    0    0 -0.00000000000E+00 -0.00000000000E+00 -0.10000000000E+04  0.10000000000E+04  0.00000000000E+00 0.  1.
    9000005    2    1    2  501    0  0.11593436669E+02  0.32151507355E+02 -0.86350190710E+03  0.86418418260E+03  0.32604726296E+01 0.  0.
         13    1    3    3    0    0  0.87024874053E+01  0.20387836436E+02 -0.58069229116E+03  0.58111525034E+03  0.00000000000E+00 0.  1.
          1    1    3    3  501    0  0.28909492639E+01  0.11763670919E+02 -0.28280961594E+03  0.28306893226E+03  0.00000000000E+00 0.  1.
         -1    1    1    2    0  502 -0.11593436669E+02 -0.32151507355E+02 -0.13401213780E+03  0.13830177250E+03  0.00000000000E+00 0. -1.
<mgrwt>
<rscale>  1 0.30000000E+03</rscale>
<asrwt>0</asrwt>
<pdfrwt beam="1">  1       21 0.90398558E-02 0.30000000E+03</pdfrwt>
<pdfrwt beam="2">0</pdfrwt>
<totfact> 0.10297147E+04</totfact>
</mgrwt>
</event>
<event>
 6    1  0.1273846E-001  0.3000000E+03  0.7818608E-02  0.1093470E+00
         21   -1    0    0  501  502  0.00000000000E+00  0.00000000000E+00  0.18059737143E+02  0.18059737143E+02  0.00000000000E+00 0. -1.
         13   -1    0    0    0    0 -0.00000000000E+00 -0.00000000000E+00 -0.10000000000E+04  0.10000000000E+04  0.00000000000E+00 0.  1.
    9000005    2    1    2  501    0  0.89433381244E+02 -0.85070521141E+02 -0.69211082970E+03  0.70304160501E+03  0.38437662349E+01 0.  0.
         13    1    3    3    0    0  0.75861337561E+02 -0.70257013879E+02 -0.57761729258E+03  0.58679871100E+03  0.00000000000E+00 0.  1.
          3    1    3    3  501    0  0.13572043683E+02 -0.14813507263E+02 -0.11449353712E+03  0.11624289402E+03  0.00000000000E+00 0.  1.
         -3    1    1    2    0  502 -0.89433381244E+02  0.85070521141E+02 -0.28982943315E+03  0.31501813213E+03  0.00000000000E+00 0. -1.
<mgrwt>
<rscale>  1 0.30000000E+03</rscale>
<asrwt>0</asrwt>
<pdfrwt beam="1">  1       21 0.65671910E-01 0.30000000E+03</pdfrwt>
<pdfrwt beam="2">0</pdfrwt>
<totfact> 0.20453961E+02</totfact>
</mgrwt>
</event>
<event>
 6    1  0.1273846E-001  0.3000000E+03  0.7818608E-02  0.1093470E+00
         21   -1    0    0  501  502  0.00000000000E+00  0.00000000000E+00  0.14599978072E+01  0.14599978072E+01  0.00000000000E+00 0. -1.
         13   -1    0    0    0    0 -0.00000000000E+00 -0.00000000000E+00 -0.10000000000E+04  0.10000000000E+04  0.00000000000E+00 0.  1.
    9000005    2    1    2  501    0 -0.14752498739E+02  0.30297382095E+02 -0.72288887092E+03  0.72375671416E+03  0.10949611836E+02 0.  0.
         13    1    3    3    0    0 -0.15112130481E+02  0.30834712007E+02 -0.68306198126E+03  0.68392457639E+03  0.00000000000E+00 0.  1.
          1    1    3    3  501    0  0.35963174254E+00 -0.53732991188E+00 -0.39826889666E+02  0.39832137764E+02  0.00000000000E+00 0.  1.
         -1    1    1    2    0  502  0.14752498739E+02 -0.30297382095E+02 -0.27565113127E+03  0.27770328365E+03  0.00000000000E+00 0. -1.
<mgrwt>
<rscale>  1 0.30000000E+03</rscale>
<asrwt>0</asrwt>
<pdfrwt beam="1">  1       21 0.53090941E-02 0.30000000E+03</pdfrwt>
<pdfrwt beam="2">0</pdfrwt>
<totfact> 0.26000510E+04</totfact>
</mgrwt>
</event>
<event>
 6    1  0.1273846E-001  0.3000000E+03  0.7818608E-02  0.1093470E+00
         21   -1    0    0  501  502  0.00000000000E+00  0.00000000000E+00  0.23422648677E+01  0.23422648677E+01  0.00000000000E+00 0. -1.
         13   -1    0    0    0    0 -0.00000000000E+00 -0.00000000000E+00 -0.10000000000E+04  0.10000000000E+04  0.00000000000E+00 0.  1.
    9000005    2    1    2  501    0  0.10663703749E+00  0.40399937076E+02 -0.77082269673E+03  0.77193761879E+03  0.93750318310E+01 0.  0.
         13    1    3    3    0    0  0.37853786747E+01  0.94989202507E+01 -0.16557719246E+03  0.16589263167E+03  0.00000000000E+00 0.  1.
          1    1    3    3  501    0 -0.36787416372E+01  0.30901016826E+02 -0.60524550427E+03  0.60604498713E+03  0.00000000000E+00 0.  1.
         -1    1    1    2    0  502 -0.10663703749E+00 -0.40399937076E+02 -0.22683503840E+03  0.23040464607E+03  0.00000000000E+00 0. -1.
<mgrwt>
<rscale>  1 0.30000000E+03</rscale>
<asrwt>0</asrwt>
<pdfrwt beam="1">  1       21 0.85173448E-02 0.30000000E+03</pdfrwt>
<pdfrwt beam="2">0</pdfrwt>
<totfact> 0.11440062E+04</totfact>
</mgrwt>
</event>
<event>
 6    1  0.1273846E-001  0.3000000E+03  0.7818608E-02  0.1093470E+00
         21   -1    0    0  501  502  0.00000000000E+00  0.00000000000E+00  0.99396655827E+00  0.99396655827E+00  0.00000000000E+00 0. -1.
         13   -1    0    0    0    0 -0.00000000000E+00 -0.00000000000E+00 -0.10000000000E+04  0.10000000000E+04  0.00000000000E+00 0.  1.
    9000005    2    1    2  501    0 -0.20482279762E+02 -0.22389185316E+02 -0.63186698376E+03  0.63260303127E+03  0.31481104248E+01 0.  0.
         13    1    3    3    0    0 -0.18715636716E+01 -0.21840474833E+01 -0.81801123245E+02  0.81851674254E+02  0.00000000000E+00 0.  1.
          1    1    3    3  501    0 -0.18610716090E+02 -0.20205137833E+02 -0.55006586051E+03  0.55075135701E+03  0.00000000000E+00 0.  1.
         -3    1    1    2    0  502  0.20482279762E+02  0.22389185316E+02 -0.36713904968E+03  0.36839093529E+03  0.00000000000E+00 0. -1.
<mgrwt>
<rscale>  1 0.30000000E+03</rscale>
<asrwt>0</asrwt>
<pdfrwt beam="1">  1       21 0.36144315E-02 0.30000000E+03</pdfrwt>
<pdfrwt beam="2">0</pdfrwt>
<totfact> 0.49854689E+04</totfact>
</mgrwt>
</event>
<event>
 6    1  0.1273846E-001  0.3000000E+03  0.7818608E-02  0.1093470E+00
         21   -1    0    0  501  502  0.00000000000E+00  0.00000000000E+00  0.83927631480E+01  0.83927631480E+01  0.00000000000E+00 0. -1.
         13   -1    0    0    0    0 -0.00000000000E+00 -0.00000000000E+00 -0.10000000000E+04  0.10000000000E+04  0.00000000000E+00 0.  1.
    9000005    2    1    2  501    0 -0.30647530896E+02 -0.22676326147E+02 -0.95420036774E+03  0.95498152112E+03  0.61544277012E+01 0.  0.
         13    1    3    3    0    0 -0.26605690309E+02 -0.17364911217E+02 -0.82004723379E+03  0.82066245713E+03  0.00000000000E+00 0.  1.
          3    1    3    3  501    0 -0.40418405878E+01 -0.53114149308E+01 -0.13415313395E+03  0.13431906399E+03  0.00000000000E+00 0.  1.
         -1    1    1    2    0  502  0.30647530896E+02  0.22676326147E+02 -0.37406869114E+02  0.53411242024E+02  0.00000000000E+00 0. -1.
<mgrwt>
<rscale>  1 0.30000000E+03</rscale>
<asrwt>0</asrwt>
<pdfrwt beam="1">  1       21 0.30519203E-01 0.30000000E+03</pdfrwt>
<pdfrwt beam="2">0</pdfrwt>
<totfact> 0.10505460E+03</totfact>
</mgrwt>
</event>
<event>
 6    1  0.1273846E-001  0.3000000E+03  0.7818608E-02  0.1093470E+00
         21   -1    0    0  501  502  0.00000000000E+00  0.00000000000E+00  0.10561723849E+01  0.10561723849E+01  0.00000000000E+00 0. -1.
         13   -1    0    0    0    0 -0.00000000000E+00 -0.00000000000E+00 -0.10000000000E+04  0.10000000000E+04  0.00000000000E+00 0.  1.
    9000005    2    1    2  501    0 -0.27986509688E+02  0.16321412154E+02 -0.49051217910E+03  0.49159334309E+03  0.34905454849E+01 0.  0.
         13    1    3    3    0    0 -0.63416303895E+01  0.35606323569E+01 -0.13360069431E+03  0.13379850485E+03  0.00000000000E+00 0.  1.
          3    1    3    3  501    0 -0.21644879299E+02  0.12760779797E+02 -0.35691148478E+03  0.35779483824E+03  0.00000000000E+00 0.  1.
         -3    1    1    2    0  502  0.27986509688E+02 -0.16321412154E+02 -0.50843164852E+03  0.50946282930E+03  0.00000000000E+00 0. -1.
<mgrwt>
<rscale>  1 0.30000000E+03</rscale>
<asrwt>0</asrwt>
<pdfrwt beam="1">  1       21 0.38406350E-02 0.30000000E+03</pdfrwt>
<pdfrwt beam="2">0</pdfrwt>
<totfact> 0.45024044E+04</totfact>
</mgrwt>
</event>
<event>
 6    1  0.1273846E-001  0.3000000E+03  0.7818608E-02  0.1093470E+00
         21   -1    0    0  501  502  0.00000000000E+00  0.00000000000E+00  0.14213887515E+01  0.14213887515E+01  0.00000000000E+00 0. -1.
         13   -1    0    0    0    0 -0.00000000000E+00 -0.00000000000E+00 -0.10000000000E+04  0.10000000000E+04  0.00000000000E+00 0.  1.
    9000005    2    1    2  501    0  0.11735276796E+02 -0.31186597756E+02 -0.28629252684E+03  0.28835632395E+03  0.86970130171E+01 0.  0.
         13    1    3    3    0    0  0.49448323011E+01 -0.97009786718E+01 -0.63455110240E+02  0.64382539319E+02  0.00000000000E+00 0.  1.
          3    1    3    3  501    0  0.67904444949E+01 -0.21485619084E+02 -0.22283741660E+03  0.22397378463E+03  0.00000000000E+00 0.  1.
         -1    1    1    2    0  502 -0.11735276796E+02  0.31186597756E+02 -0.71228608441E+03  0.71306506480E+03  0.00000000000E+00 0. -1.
<mgrwt>
<rscale>  1 0.30000000E+03</rscale>
<asrwt>0</asrwt>
<pdfrwt beam="1">  1       21 0.51686973E-02 0.30000000E+03</pdfrwt>
<pdfrwt beam="2">0</pdfrwt>
<totfact> 0.27219152E+04</totfact>
</mgrwt>
</event>
<event>
 6    1  0.1273846E-001  0.3000000E+03  0.7818608E-02  0.1093470E+00
         21   -1    0    0  501  502  0.00000000000E+00  0.00000000000E+00  0.15570996171E+01  0.15570996171E+01  0.00000000000E+00 0. -1.
         13   -1    0    0    0    0 -0.00000000000E+00 -0.00000000000E+00 -0.10000000000E+04  0.10000000000E+04  0.00000000000E+00 0.  1.
    9000005    2    1    2  501    0  0.35017761376E+02 -0.10475758003E+01 -0.72815681356E+03  0.72901002156E+03  0.39906610549E+01 0.  0.
         13    1    3    3    0    0  0.28634649432E+02  0.58283788114E+00 -0.57958834360E+03  0.58029555476E+03  0.00000000000E+00 0.  1.
          1    1    3    3  501    0  0.63831119443E+01 -0.16304136814E+01 -0.14856846997E+03  0.14871446680E+03  0.00000000000E+00 0.  1.
         -3    1    1    2    0  502 -0.35017761376E+02  0.10475758003E+01 -0.27028608682E+03  0.27254707805E+03  0.00000000000E+00 0. -1.
<mgrwt>
<rscale>  1 0.30000000E+03</rscale>
<asrwt>0</asrwt>
<pdfrwt beam="1">  1       21 0.56621924E-02 0.30000000E+03</pdfrwt>
<pdfrwt beam="2">0</pdfrwt>
<totfact> 0.23283108E+04</totfact>
</mgrwt>
</event>
<event>
 6    1  0.1273846E-001  0.3000000E+03  0.7818608E-02  0.1093470E+00
         21   -1    0    0  501  502  0.00000000000E+00  0.00000000000E+00  0.10307660083E+01  0.10307660083E+01  0.00000000000E+00 0. -1.
         13   -1    0    0    0    0 -0.00000000000E+00 -0.00000000000E+00 -0.10000000000E+04  0.10000000000E+04  0.00000000000E+00 0.  1.
    9000005    2    1    2  501    0  0.13450785410E+02  0.27913972445E+02 -0.62593314319E+03  0.62670999645E+03  0.36064407255E+01 0.  0.
         13    1    3    3    0    0  0.71186232966E+01  0.16753678879E+02 -0.33535828803E+03  0.33585196427E+03  0.00000000000E+00 0.  1.
          3    1    3    3  501    0  0.63321621138E+01  0.11160293566E+02 -0.29057485516E+03  0.29085803217E+03  0.00000000000E+00 0.  1.
         -1    1    1    2    0  502 -0.13450785410E+02 -0.27913972445E+02 -0.37303609080E+03  0.37432076956E+03  0.00000000000E+00 0. -1.
<mgrwt>
<rscale>  1 0.30000000E+03</rscale>
<asrwt>0</asrwt>
<pdfrwt beam="1">  1       21 0.37482479E-02 0.30000000E+03</pdfrwt>
<pdfrwt beam="2">0</pdfrwt>
<totfact> 0.46904068E+04</totfact>
</mgrwt>
</event>
<event>
 6    1  0.1273846E-001  0.3000000E+03  0.7818608E-02  0.1093470E+00
         21   -1    0    0  501  502  0.00000000000E+00  0.00000000000E+00  0.20961709760E+01  0.20961709760E+01  0.00000000000E+00 0. -1.
         13   -1    0    0    0    0 -0.00000000000E+00 -0.00000000000E+00 -0.10000000000E+04  0.10000000000E+04  0.00000000000E+00 0.  1.
    9000005    2    1    2  501    0 -0.32867662717E+02  0.30639640636E+02 -0.40835961882E+03  0.41084204066E+03  0.38122512966E+01 0.  0.
         13    1    3    3    0    0 -0.96467802782E+01  0.10673626781E+02 -0.14249848946E+03  0.14322292476E+03  0.00000000000E+00 0.  1.
          1    1    3    3  501    0 -0.23220882439E+02  0.19966013855E+02 -0.26586112936E+03  0.26761911590E+03  0.00000000000E+00 0.  1.
         -1    1    1    2    0  502  0.32867662717E+02 -0.30639640636E+02 -0.58954421020E+03  0.59125413031E+03  0.00000000000E+00 0. -1.
<mgrwt>
<rscale>  1 0.30000000E+03</rscale>
<asrwt>0</asrwt>
<pdfrwt beam="1">  1       21 0.76224560E-02 0.30000000E+03</pdfrwt>
<pdfrwt beam="2">0</pdfrwt>
<totfact> 0.13904398E+04</totfact>
</mgrwt>
</event>
<event>
 6    1  0.1273846E-001  0.3000000E+03  0.7818608E-02  0.1093470E+00
         21   -1    0    0  501  502  0.00000000000E+00  0.00000000000E+00  0.95685567338E+00  0.95685567338E+00  0.00000000000E+00 0. -1.
         13   -1    0    0    0    0 -0.00000000000E+00 -0.00000000000E+00 -0.10000000000E+04  0.10000000000E+04  0.00000000000E+00 0.  1.
    9000005    2    1    2  501    0  0.22248058591E+02 -0.21105854687E+02 -0.44536626001E+03  0.44643135992E+03  0.30692592373E+01 0.  0.
         13    1    3    3    0    0  0.41269995422E+01 -0.44463582940E+01 -0.10610824178E+03  0.10628151863E+03  0.00000000000E+00 0.  1.
          1    1    3    3  501    0  0.18121059048E+02 -0.16659496393E+02 -0.33925801822E+03  0.34014984129E+03  0.00000000000E+00 0.  1.
         -3    1    1    2    0  502 -0.22248058591E+02  0.21105854687E+02 -0.55367688432E+03  0.55452549575E+03  0.00000000000E+00 0. -1.
<mgrwt>
<rscale>  1 0.30000000E+03</rscale>
<asrwt>0</asrwt>
<pdfrwt beam="1">  1       21 0.34794825E-02 0.30000000E+03</pdfrwt>
<pdfrwt beam="2">0</pdfrwt>
<totfact> 0.53137258E+04</totfact>
</mgrwt>
</event>
<event>
 6    1  0.1273846E-001  0.3000000E+03  0.7818608E-02  0.1093470E+00
         21   -1    0    0  501  502  0.00000000000E+00  0.00000000000E+00  0.88435522279E+01  0.88435522279E+01  0.00000000000E+00 0. -1.
         13   -1    0    0    0    0 -0.00000000000E+00 -0.00000000000E+00 -0.10000000000E+04  0.10000000000E+04  0.00000000000E+00 0.  1.
    9000005    2    1    2  501    0  0.44514551959E+01  0.49761357592E+02 -0.92289935517E+03  0.92425608948E+03  0.31766358802E+01 0.  0.
         13    1    3    3    0    0  0.27416930592E+01  0.29661202430E+02 -0.52116678883E+03  0.52201736139E+03  0.00000000000E+00 0.  1.
          1    1    3    3  501    0  0.17097621367E+01  0.20100155162E+02 -0.40173256634E+03  0.40223872810E+03  0.00000000000E+00 0.  1.
         -3    1    1    2    0  502 -0.44514551959E+01 -0.49761357592E+02 -0.68257092605E+02  0.84587462745E+02  0.00000000000E+00 0. -1.
<mgrwt>
<rscale>  1 0.30000000E+03</rscale>
<asrwt>0</asrwt>
<pdfrwt beam="1">  1       21 0.32158440E-01 0.30000000E+03</pdfrwt>
<pdfrwt beam="2">0</pdfrwt>
<totfact> 0.94547658E+02</totfact>
</mgrwt>
</event>
<event>
 6    1  0.1273846E-001  0.3000000E+03  0.7818608E-02  0.1093470E+00
         21   -1    0    0  501  502  0.00000000000E+00  0.00000000000E+00  0.12528348655E+01  0.12528348655E+01  0.00000000000E+00 0. -1.
         13   -1    0    0    0    0 -0.00000000000E+00 -0.00000000000E+00 -0.10000000000E+04  0.10000000000E+04  0.00000000000E+00 0.  1.
    9000005    2    1    2  501    0 -0.53988991480E+01 -0.33618699162E+02 -0.63314860204E+03  0.63407212407E+03  0.33077497954E+01 0.  0.
         13    1    3    3    0    0 -0.29511419286E+01 -0.24772685282E+02 -0.48178842313E+03  0.48243391240E+03  0.00000000000E+00 0.  1.
          3    1    3    3  501    0 -0.24477572195E+01 -0.88460138801E+01 -0.15136017891E+03  0.15163821167E+03  0.00000000000E+00 0.  1.
         -1    1    1    2    0  502  0.53988991480E+01  0.33618699162E+02 -0.36559856309E+03  0.36718071080E+03  0.00000000000E+00 0. -1.
<mgrwt>
<rscale>  1 0.30000000E+03</rscale>
<asrwt>0</asrwt>
<pdfrwt beam="1">  1       21 0.45557728E-02 0.30000000E+03</pdfrwt>
<pdfrwt beam="2">0</pdfrwt>
<totfact> 0.33745068E+04</totfact>
</mgrwt>
</event>
<event>
 6    1  0.1273846E-001  0.3000000E+03  0.7818608E-02  0.1093470E+00
         21   -1    0    0  501  502  0.00000000000E+00  0.00000000000E+00  0.13277264296E+01  0.13277264296E+01  0.00000000000E+00 0. -1.
         13   -1    0    0    0    0 -0.00000000000E+00 -0.00000000000E+00 -0.10000000000E+04  0.10000000000E+04  0.00000000000E+00 0.  1.
    9000005    2    1    2  501    0  0.16683330135E+02 -0.26500329025E+02 -0.24668556384E+03  0.24868929228E+03  0.34634876286E+01 0.  0.
         13    1    3    3    0    0  0.22503544827E+01 -0.18210171768E+01 -0.25428526530E+02  0.25592775550E+02  0.00000000000E+00 0.  1.
          3    1    3    3  501    0  0.14432975652E+02 -0.24679311848E+02 -0.22125703731E+03  0.22309651673E+03  0.00000000000E+00 0.  1.
         -3    1    1    2    0  502 -0.16683330135E+02  0.26500329025E+02 -0.75198670973E+03  0.75263843415E+03  0.00000000000E+00 0. -1.
<mgrwt>
<rscale>  1 0.30000000E+03</rscale>
<asrwt>0</asrwt>
<pdfrwt beam="1">  1       21 0.48281063E-02 0.30000000E+03</pdfrwt>
<pdfrwt beam="2">0</pdfrwt>
<totfact> 0.30573257E+04</totfact>
</mgrwt>
</event>
<event>
 6    1  0.1273846E-001  0.3000000E+03  0.7818608E-02  0.1093470E+00
         21   -1    0    0  501  502  0.00000000000E+00  0.00000000000E+00  0.25610480437E+01  0.25610480437E+01  0.00000000000E+00 0. -1.
         13   -1    0    0    0    0 -0.00000000000E+00 -0.00000000000E+00 -0.10000000000E+04  0.10000000000E+04  0.00000000000E+00 0.  1.
    9000005    2    1    2  501    0 -0.35902165976E+02 -0.29399938297E+02 -0.69768887295E+03  0.69924037325E+03  0.37435610839E+01 0.  0.
         13    1    3    3    0    0 -0.33337254590E+02 -0.25970896133E+02 -0.63812208672E+03  0.63951986486E+03  0.00000000000E+00 0.  1.
          3    1    3    3  501    0 -0.25649113862E+01 -0.34290421636E+01 -0.59566786223E+02  0.59720508383E+02  0.00000000000E+00 0.  1.
         -1    1    1    2    0  502  0.35902165976E+02  0.29399938297E+02 -0.29975007901E+03  0.30332067480E+03  0.00000000000E+00 0. -1.
<mgrwt>
<rscale>  1 0.30000000E+03</rscale>
<asrwt>0</asrwt>
<pdfrwt beam="1">  1       21 0.93129216E-02 0.30000000E+03</pdfrwt>
<pdfrwt beam="2">0</pdfrwt>
<totfact> 0.97673564E+03</totfact>
</mgrwt>
</event>
<event>
 6    1  0.1273846E-001  0.3000000E+03  0.7818608E-02  0.1093470E+00
         21   -1    0    0  501  502  0.00000000000E+00  0.00000000000E+00  0.11807308049E+01  0.11807308049E+01  0.00000000000E+00 0. -1.
         13   -1    0    0    0    0 -0.00000000000E+00 -0.00000000000E+00 -0.10000000000E+04  0.10000000000E+04  0.00000000000E+00 0.  1.
    9000005    2    1    2  501    0  0.31114428681E+02  0.97685704206E+01 -0.34655674656E+03  0.34810345277E+03  0.33019100188E+01 0.  0.
         13    1    3    3    0    0  0.60132888467E+01  0.32911899412E+01 -0.72859412758E+02  0.73181183383E+02  0.00000000000E+00 0.  1.
          1    1    3    3  501    0  0.25101139834E+02  0.64773804794E+01 -0.27369733380E+03  0.27492226939E+03  0.00000000000E+00 0.  1.
         -3    1    1    2    0  502 -0.31114428681E+02 -0.97685704206E+01 -0.65226252264E+03  0.65307727803E+03  0.00000000000E+00 0. -1.
<mgrwt>
<rscale>  1 0.30000000E+03</rscale>
<asrwt>0</asrwt>
<pdfrwt beam="1">  1       21 0.42935756E-02 0.30000000E+03</pdfrwt>
<pdfrwt beam="2">0</pdfrwt>
<totfact> 0.37310966E+04</totfact>
</mgrwt>
</event>
<event>
 6    1  0.1273846E-001  0.3000000E+03  0.7818608E-02  0.1093470E+00
         21   -1    0    0  501  502  0.00000000000E+00  0.00000000000E+00  0.23262483217E+01  0.23262483217E+01  0.00000000000E+00 0. -1.
         13   -1    0    0    0    0 -0.00000000000E+00 -0.00000000000E+00 -0.10000000000E+04  0.10000000000E+04  0.00000000000E+00 0.  1.
    9000005    2    1    2  501    0 -0.13732345808E+01 -0.34209479252E+02 -0.85160567096E+03  0.85229938923E+03  0.31393993727E+01 0.  0.
         13    1    3    3    0    0 -0.12056795058E+01 -0.30426360712E+02 -0.77921145881E+03  0.77980620325E+03  0.00000000000E+00 0.  1.
          3    1    3    3  501    0 -0.16755507500E+00 -0.37831185403E+01 -0.72394212149E+02  0.72493185979E+02  0.00000000000E+00 0.  1.
         -3    1    1    2    0  502  0.13732345808E+01  0.34209479252E+02 -0.14606808072E+03  0.15002685909E+03  0.00000000000E+00 0. -1.
<mgrwt>
<rscale>  1 0.30000000E+03</rscale>
<asrwt>0</asrwt>
<pdfrwt beam="1">  1       21 0.84591026E-02 0.30000000E+03</pdfrwt>
<pdfrwt beam="2">0</pdfrwt>
<totfact> 0.11579307E+04</totfact>
</mgrwt>
</event>
<event>
 6    1  0.1273846E-001  0.3000000E+03  0.7818608E-02  0.1093470E+00
         21   -1    0    0  501  502  0.00000000000E+00  0.00000000000E+00  0.55875616335E+01  0.55875616335E+01  0.00000000000E+00 0. -1.
         13   -1    0    0    0    0 -0.00000000000E+00 -0.00000000000E+00 -0.10000000000E+04  0.10000000000E+04  0.00000000000E+00 0.  1.
    9000005    2    1    2  501    0  0.19230679114E+02  0.26935130027E+02 -0.94800684498E+03  0.94858932178E+03  0.30664339452E+01 0.  0.
         13    1    3    3    0    0  0.46813300763E+00  0.45652988990E+00 -0.34567226588E+02  0.34573410622E+02  0.00000000000E+00 0.  1.
          3    1    3    3  501    0  0.18762546106E+02  0.26478600138E+02 -0.91343961840E+03  0.91401591116E+03  0.00000000000E+00 0.  1.
         -3    1    1    2    0  502 -0.19230679114E+02 -0.26935130027E+02 -0.46405593383E+02  0.56998239850E+02  0.00000000000E+00 0. -1.
<mgrwt>
<rscale>  1 0.30000000E+03</rscale>
<asrwt>0</asrwt>
<pdfrwt beam="1">  1       21 0.20318449E-01 0.30000000E+03</pdfrwt>
<pdfrwt beam="2">0</pdfrwt>
<totfact> 0.23278967E+03</totfact>
</mgrwt>
</event>
<event>
 6    1  0.1273846E-001  0.3000000E+03  0.7818608E-02  0.1093470E+00
         21   -1    0    0  501  502  0.00000000000E+00  0.00000000000E+00  0.78487719626E+01  0.78487719626E+01  0.00000000000E+00 0. -1.
         13   -1    0    0    0    0 -0.00000000000E+00 -0.00000000000E+00 -0.10000000000E+04  0.10000000000E+04  0.00000000000E+00 0.  1.
    9000005    2    1    2  501    0  0.75419060384E+02 -0.48324007991E+01 -0.23346720782E+03  0.24541003390E+03  0.27858292142E+01 0.  0.
         13    1    3    3    0    0  0.26487043711E+02 -0.37029056065E+00 -0.82144352686E+02  0.86309879376E+02  0.00000000000E+00 0.  1.
          3    1    3    3  501    0  0.48932016673E+02 -0.44621102384E+01 -0.15132285514E+03  0.15910015453E+03  0.00000000000E+00 0.  1.
         -3    1    1    2    0  502 -0.75419060384E+02  0.48324007991E+01 -0.75868402021E+03  0.76243873806E+03  0.00000000000E+00 0. -1.
<mgrwt>
<rscale>  1 0.30000000E+03</rscale>
<asrwt>0</asrwt>
<pdfrwt beam="1">  1       21 0.28541049E-01 0.30000000E+03</pdfrwt>
<pdfrwt beam="2">0</pdfrwt>
<totfact> 0.12008992E+03</totfact>
</mgrwt>
</event>
<event>
 6    1  0.1273846E-001  0.3000000E+03  0.7818608E-02  0.1093470E+00
         21   -1    0    0  501  502  0.00000000000E+00  0.00000000000E+00  0.23562882385E+01  0.23562882385E+01  0.00000000000E+00 0. -1.
         13   -1    0    0    0    0 -0.00000000000E+00 -0.00000000000E+00 -0.10000000000E+04  0.10000000000E+04  0.00000000000E+00 0.  1.
    9000005    2    1    2  501    0 -0.45462741671E+02 -0.16232554786E+02 -0.54336772020E+03  0.54552258411E+03  0.40067078409E+01 0.  0.
         13    1    3    3    0    0 -0.42355973355E+02 -0.14047694818E+02 -0.50446823013E+03  0.50643811214E+03  0.00000000000E+00 0.  1.
          1    1    3    3  501    0 -0.31067683152E+01 -0.21848599681E+01 -0.38899490063E+02  0.39084471975E+02  0.00000000000E+00 0.  1.
         -1    1    1    2    0  502  0.45462741671E+02  0.16232554786E+02 -0.45427599157E+03  0.45683370413E+03  0.00000000000E+00 0. -1.
<mgrwt>
<rscale>  1 0.30000000E+03</rscale>
<asrwt>0</asrwt>
<pdfrwt beam="1">  1       21 0.85683389E-02 0.30000000E+03</pdfrwt>
<pdfrwt beam="2">0</pdfrwt>
<totfact> 0.11320231E+04</totfact>
</mgrwt>
</event>
<event>
 6    1  0.1273846E-001  0.3000000E+03  0.7818608E-02  0.1093470E+00
         21   -1    0    0  501  502  0.00000000000E+00  0.00000000000E+00  0.16368479484E+01  0.16368479484E+01  0.00000000000E+00 0. -1.
         13   -1    0    0    0    0 -0.00000000000E+00 -0.00000000000E+00 -0.10000000000E+04  0.10000000000E+04  0.00000000000E+00 0.  1.
    9000005    2    1    2  501    0 -0.56364028174E+01 -0.33358000701E+02 -0.77316192514E+03  0.77390868138E+03  0.32801489077E+01 0.  0.
         13    1    3    3    0    0 -0.60263017445E+01 -0.32368724960E+02 -0.75008695267E+03  0.75080922160E+03  0.00000000000E+00 0.  1.
          3    1    3    3  501    0  0.38989892712E+00 -0.98927574064E+00 -0.23074972469E+02  0.23099459780E+02  0.00000000000E+00 0.  1.
         -3    1    1    2    0  502  0.56364028174E+01  0.33358000701E+02 -0.22520122691E+03  0.22772816657E+03  0.00000000000E+00 0. -1.
<mgrwt>
<rscale>  1 0.30000000E+03</rscale>
<asrwt>0</asrwt>
<pdfrwt beam="1">  1       21 0.59521869E-02 0.30000000E+03</pdfrwt>
<pdfrwt beam="2">0</pdfrwt>
<totfact> 0.21364391E+04</totfact>
</mgrwt>
</event>
<event>
 6    1  0.1273846E-001  0.3000000E+03  0.7818608E-02  0.1093470E+00
         21   -1    0    0  501  502  0.00000000000E+00  0.00000000000E+00  0.20259995298E+01  0.20259995298E+01  0.00000000000E+00 0. -1.
         13   -1    0    0    0    0 -0.00000000000E+00 -0.00000000000E+00 -0.10000000000E+04  0.10000000000E+04  0.00000000000E+00 0.  1.
    9000005    2    1    2  501    0  0.24812890062E+02 -0.22093698270E+02 -0.83647271156E+03  0.83714277620E+03  0.41975636111E+01 0.  0.
         13    1    3    3    0    0  0.14257776254E+02 -0.12495387383E+02 -0.52818653870E+03  0.52852666778E+03  0.00000000000E+00 0.  1.
          1    1    3    3  501    0  0.10555113808E+02 -0.95983108875E+01 -0.30828617286E+03  0.30861610842E+03  0.00000000000E+00 0.  1.
         -1    1    1    2    0  502 -0.24812890062E+02  0.22093698270E+02 -0.16150128891E+03  0.16488322333E+03  0.00000000000E+00 0. -1.
<mgrwt>
<rscale>  1 0.30000000E+03</rscale>
<asrwt>0</asrwt>
<pdfrwt beam="1">  1       21 0.73672866E-02 0.30000000E+03</pdfrwt>
<pdfrwt beam="2">0</pdfrwt>
<totfact> 0.14758390E+04</totfact>
</mgrwt>
</event>
<event>
 6    1  0.1273846E-001  0.3000000E+03  0.7818608E-02  0.1093470E+00
         21   -1    0    0  501  502  0.00000000000E+00  0.00000000000E+00  0.38810655577E+01  0.38810655577E+01  0.00000000000E+00 0. -1.
         13   -1    0    0    0    0 -0.00000000000E+00 -0.00000000000E+00 -0.10000000000E+04  0.10000000000E+04  0.00000000000E+00 0.  1.
    9000005    2    1    2  501    0  0.39589580361E+02  0.88476020848E+01 -0.87874792128E+03  0.87969745285E+03  0.49075911571E+01 0.  0.
         13    1    3    3    0    0  0.14444897111E+02  0.40009625421E+01 -0.37429254372E+03  0.37459254001E+03  0.00000000000E+00 0.  1.
          3    1    3    3  501    0  0.25144683250E+02  0.48466395427E+01 -0.50445537757E+03  0.50510491283E+03  0.00000000000E+00 0.  1.
         -1    1    1    2    0  502 -0.39589580361E+02 -0.88476020848E+01 -0.11737101316E+03  0.12418361271E+03  0.00000000000E+00 0. -1.
<mgrwt>
<rscale>  1 0.30000000E+03</rscale>
<asrwt>0</asrwt>
<pdfrwt beam="1">  1       21 0.14112995E-01 0.30000000E+03</pdfrwt>
<pdfrwt beam="2">0</pdfrwt>
<totfact> 0.46080848E+03</totfact>
</mgrwt>
</event>
<event>
 6    1  0.1273846E-001  0.3000000E+03  0.7818608E-02  0.1093470E+00
         21   -1    0    0  501  502  0.00000000000E+00  0.00000000000E+00  0.32363737793E+01  0.32363737793E+01  0.00000000000E+00 0. -1.
         13   -1    0    0    0    0 -0.00000000000E+00 -0.00000000000E+00 -0.10000000000E+04  0.10000000000E+04  0.00000000000E+00 0.  1.
    9000005    2    1    2  501    0  0.40339285692E+02 -0.27247319655E+02 -0.75764530437E+03  0.75921332929E+03  0.29660975635E+01 0.  0.
         13    1    3    3    0    0  0.25786604361E+02 -0.16175985471E+02 -0.45755503827E+03  0.45856648865E+03  0.00000000000E+00 0.  1.
          1    1    3    3  501    0  0.14552681331E+02 -0.11071334184E+02 -0.30009026611E+03  0.30064684064E+03  0.00000000000E+00 0.  1.
         -1    1    1    2    0  502 -0.40339285692E+02  0.27247319655E+02 -0.23911832185E+03  0.24402304449E+03  0.00000000000E+00 0. -1.
<mgrwt>
<rscale>  1 0.30000000E+03</rscale>
<asrwt>0</asrwt>
<pdfrwt beam="1">  1       21 0.11768657E-01 0.30000000E+03</pdfrwt>
<pdfrwt beam="2">0</pdfrwt>
<totfact> 0.64197318E+03</totfact>
</mgrwt>
</event>
<event>
 6    1  0.1273846E-001  0.3000000E+03  0.7818608E-02  0.1093470E+00
         21   -1    0    0  501  502  0.00000000000E+00  0.00000000000E+00  0.16696643618E+01  0.16696643618E+01  0.00000000000E+00 0. -1.
         13   -1    0    0    0    0 -0.00000000000E+00 -0.00000000000E+00 -0.10000000000E+04  0.10000000000E+04  0.00000000000E+00 0.  1.
    9000005    2    1    2  501    0 -0.33027923279E+02 -0.11118260393E+02 -0.23999693759E+03  0.24253594621E+03  0.32704317842E+01 0.  0.
         13    1    3    3    0    0 -0.29420965080E+02 -0.89081563154E+01 -0.21418390172E+03  0.21637858533E+03  0.00000000000E+00 0.  1.
          1    1    3    3  501    0 -0.36069581998E+01 -0.22101040778E+01 -0.25813035866E+02  0.26157360878E+02  0.00000000000E+00 0.  1.
         -3    1    1    2    0  502  0.33027923279E+02  0.11118260393E+02 -0.75833339805E+03  0.75913371815E+03  0.00000000000E+00 0. -1.
<mgrwt>
<rscale>  1 0.30000000E+03</rscale>
<asrwt>0</asrwt>
<pdfrwt beam="1">  1       21 0.60715196E-02 0.30000000E+03</pdfrwt>
<pdfrwt beam="2">0</pdfrwt>
<totfact> 0.20645313E+04</totfact>
</mgrwt>
</event>
<event>
 6    1  0.1273846E-001  0.3000000E+03  0.7818608E-02  0.1093470E+00
         21   -1    0    0  501  502  0.00000000000E+00  0.00000000000E+00  0.13255990110E+01  0.13255990110E+01  0.00000000000E+00 0. -1.
         13   -1    0    0    0    0 -0.00000000000E+00 -0.00000000000E+00 -0.10000000000E+04  0.10000000000E+04  0.00000000000E+00 0.  1.
    9000005    2    1    2  501    0 -0.10339600871E+02  0.34409162590E+02 -0.42439916406E+03  0.42592752327E+03  0.29507300805E+01 0.  0.
         13    1    3    3    0    0 -0.22866509501E+01  0.12459043939E+02 -0.15137303836E+03  0.15190211747E+03  0.00000000000E+00 0.  1.
          3    1    3    3  501    0 -0.80529499205E+01  0.21950118651E+02 -0.27302612569E+03  0.27402540580E+03  0.00000000000E+00 0.  1.
         -1    1    1    2    0  502  0.10339600871E+02 -0.34409162590E+02 -0.57427523693E+03  0.57539807575E+03  0.00000000000E+00 0. -1.
<mgrwt>
<rscale>  1 0.30000000E+03</rscale>
<asrwt>0</asrwt>
<pdfrwt beam="1">  1       21 0.48203702E-02 0.30000000E+03</pdfrwt>
<pdfrwt beam="2">0</pdfrwt>
<totfact> 0.30656812E+04</totfact>
</mgrwt>
</event>
<event>
 6    1  0.1273846E-001  0.3000000E+03  0.7818608E-02  0.1093470E+00
         21   -1    0    0  501  502  0.00000000000E+00  0.00000000000E+00  0.37682272147E+01  0.37682272147E+01  0.00000000000E+00 0. -1.
         13   -1    0    0    0    0 -0.00000000000E+00 -0.00000000000E+00 -0.10000000000E+04  0.10000000000E+04  0.00000000000E+00 0.  1.
    9000005    2    1    2  501    0 -0.30142178245E+02  0.31247410760E+02 -0.85274495151E+03  0.85385685517E+03  0.35531967295E+01 0.  0.
         13    1    3    3    0    0 -0.12269715847E+02  0.10858497158E+02 -0.29921040639E+03  0.29965867280E+03  0.00000000000E+00 0.  1.
          1    1    3    3  501    0 -0.17872462398E+02  0.20388913602E+02 -0.55353454512E+03  0.55419818238E+03  0.00000000000E+00 0.  1.
         -3    1    1    2    0  502  0.30142178245E+02 -0.31247410760E+02 -0.14348682127E+03  0.14991137204E+03  0.00000000000E+00 0. -1.
<mgrwt>
<rscale>  1 0.30000000E+03</rscale>
<asrwt>0</asrwt>
<pdfrwt beam="1">  1       21 0.13702673E-01 0.30000000E+03</pdfrwt>
<pdfrwt beam="2">0</pdfrwt>
<totfact> 0.48646270E+03</totfact>
</mgrwt>
</event>
<event>
 6    1  0.1273846E-001  0.3000000E+03  0.7818608E-02  0.1093470E+00
         21   -1    0    0  501  502  0.00000000000E+00  0.00000000000E+00  0.16714976923E+01  0.16714976923E+01  0.00000000000E+00 0. -1.
         13   -1    0    0    0    0 -0.00000000000E+00 -0.00000000000E+00 -0.10000000000E+04  0.10000000000E+04  0.00000000000E+00 0.  1.
    9000005    2    1    2  501    0  0.31357543644E+01 -0.31319526720E+02 -0.81823454796E+03  0.81884759854E+03  0.35872617125E+01 0.  0.
         13    1    3    3    0    0 -0.47993593613E+00 -0.10510421165E+02 -0.25360292705E+03  0.25382108640E+03  0.00000000000E+00 0.  1.
          3    1    3    3  501    0  0.36156903005E+01 -0.20809105555E+02 -0.56463162091E+03  0.56502651214E+03  0.00000000000E+00 0.  1.
         -3    1    1    2    0  502 -0.31357543644E+01  0.31319526720E+02 -0.18009395435E+03  0.18282389915E+03  0.00000000000E+00 0. -1.
<mgrwt>
<rscale>  1 0.30000000E+03</rscale>
<asrwt>0</asrwt>
<pdfrwt beam="1">  1       21 0.60781862E-02 0.30000000E+03</pdfrwt>
<pdfrwt beam="2">0</pdfrwt>
<totfact> 0.20606256E+04</totfact>
</mgrwt>
</event>
<event>
 6    1  0.1273846E-001  0.3000000E+03  0.7818608E-02  0.1093470E+00
         21   -1    0    0  501  502  0.00000000000E+00  0.00000000000E+00  0.10652298890E+01  0.10652298890E+01  0.00000000000E+00 0. -1.
         13   -1    0    0    0    0 -0.00000000000E+00 -0.00000000000E+00 -0.10000000000E+04  0.10000000000E+04  0.00000000000E+00 0.  1.
    9000005    2    1    2  501    0  0.19410721657E+02 -0.25915745174E+02 -0.45087060927E+03  0.45204544303E+03  0.35177121099E+01 0.  0.
         13    1    3    3    0    0  0.15615967068E+02 -0.19037362396E+02 -0.35564881452E+03  0.35650015269E+03  0.00000000000E+00 0.  1.
          3    1    3    3  501    0  0.37947545891E+01 -0.68783827785E+01 -0.95221794749E+02  0.95545290346E+02  0.00000000000E+00 0.  1.
         -3    1    1    2    0  502 -0.19410721657E+02  0.25915745174E+02 -0.54806416084E+03  0.54901978686E+03  0.00000000000E+00 0. -1.
<mgrwt>
<rscale>  1 0.30000000E+03</rscale>
<asrwt>0</asrwt>
<pdfrwt beam="1">  1       21 0.38735714E-02 0.30000000E+03</pdfrwt>
<pdfrwt beam="2">0</pdfrwt>
<totfact> 0.44382298E+04</totfact>
</mgrwt>
</event>
<event>
 6    1  0.1273846E-001  0.3000000E+03  0.7818608E-02  0.1093470E+00
         21   -1    0    0  501  502  0.00000000000E+00  0.00000000000E+00  0.23009145578E+01  0.23009145578E+01  0.00000000000E+00 0. -1.
         13   -1    0    0    0    0 -0.00000000000E+00 -0.00000000000E+00 -0.10000000000E+04  0.10000000000E+04  0.00000000000E+00 0.  1.
    9000005    2    1    2  501    0  0.39500048292E+02  0.14906689080E+02 -0.73595738997E+03  0.73717607917E+03  0.35817097300E+01 0.  0.
         13    1    3    3    0    0  0.65963798975E+01  0.38200213401E+01 -0.14289499000E+03  0.14309815848E+03  0.00000000000E+00 0.  1.
          1    1    3    3  501    0  0.32903668394E+02  0.11086667740E+02 -0.59306239997E+03  0.59407792069E+03  0.00000000000E+00 0.  1.
         -3    1    1    2    0  502 -0.39500048292E+02 -0.14906689080E+02 -0.26174169547E+03  0.26512483539E+03  0.00000000000E+00 0. -1.
<mgrwt>
<rscale>  1 0.30000000E+03</rscale>
<asrwt>0</asrwt>
<pdfrwt beam="1">  1       21 0.83669797E-02 0.30000000E+03</pdfrwt>
<pdfrwt beam="2">0</pdfrwt>
<totfact> 0.11804899E+04</totfact>
</mgrwt>
</event>
<event>
 6    1  0.1273846E-001  0.3000000E+03  0.7818608E-02  0.1093470E+00
         21   -1    0    0  501  502  0.00000000000E+00  0.00000000000E+00  0.17633992488E+01  0.17633992488E+01  0.00000000000E+00 0. -1.
         13   -1    0    0    0    0 -0.00000000000E+00 -0.00000000000E+00 -0.10000000000E+04  0.10000000000E+04  0.00000000000E+00 0.  1.
    9000005    2    1    2  501    0 -0.13425171416E+02  0.39496243921E+02 -0.55098204574E+03  0.55256764516E+03  0.30982641153E+01 0.  0.
         13    1    3    3    0    0 -0.96521150308E+01  0.27461972442E+02 -0.40223344713E+03  0.40328534470E+03  0.00000000000E+00 0.  1.
          3    1    3    3  501    0 -0.37730563853E+01  0.12034271479E+02 -0.14874859861E+03  0.14928230047E+03  0.00000000000E+00 0.  1.
         -3    1    1    2    0  502  0.13425171416E+02 -0.39496243921E+02 -0.44725455501E+03  0.44919575408E+03  0.00000000000E+00 0. -1.
<mgrwt>
<rscale>  1 0.30000000E+03</rscale>
<asrwt>0</asrwt>
<pdfrwt beam="1">  1       21 0.64123744E-02 0.30000000E+03</pdfrwt>
<pdfrwt beam="2">0</pdfrwt>
<totfact> 0.18786195E+04</totfact>
</mgrwt>
</event>
<event>
 6    1  0.1273846E-001  0.3000000E+03  0.7818608E-02  0.1093470E+00
         21   -1    0    0  501  502  0.00000000000E+00  0.00000000000E+00  0.15757779341E+01  0.15757779341E+01  0.00000000000E+00 0. -1.
         13   -1    0    0    0    0 -0.00000000000E+00 -0.00000000000E+00 -0.10000000000E+04  0.10000000000E+04  0.00000000000E+00 0.  1.
    9000005    2    1    2  501    0  0.17774101599E+02  0.26040116143E+02 -0.80301153194E+03  0.80363607550E+03  0.30684009212E+01 0.  0.
         13    1    3    3    0    0  0.14564132824E+02  0.22361257289E+02 -0.65281888247E+03  0.65336408923E+03  0.00000000000E+00 0.  1.
          3    1    3    3  501    0  0.32099687757E+01  0.36788588544E+01 -0.15019264947E+03  0.15027198627E+03  0.00000000000E+00 0.  1.
         -3    1    1    2    0  502 -0.17774101599E+02 -0.26040116143E+02 -0.19541269013E+03  0.19793970243E+03  0.00000000000E+00 0. -1.
<mgrwt>
<rscale>  1 0.30000000E+03</rscale>
<asrwt>0</asrwt>
<pdfrwt beam="1">  1       21 0.57301137E-02 0.30000000E+03</pdfrwt>
<pdfrwt beam="2">0</pdfrwt>
<totfact> 0.22810598E+04</totfact>
</mgrwt>
</event>
<event>
 6    1  0.1273846E-001  0.3000000E+03  0.7818608E-02  0.1093470E+00
         21   -1    0    0  501  502  0.00000000000E+00  0.00000000000E+00  0.19523714154E+01  0.19523714154E+01  0.00000000000E+00 0. -1.
         13   -1    0    0    0    0 -0.00000000000E+00 -0.00000000000E+00 -0.10000000000E+04  0.10000000000E+04  0.00000000000E+00 0.  1.
    9000005    2    1    2  501    0 -0.27499232137E+02  0.17537548413E+02 -0.83615026388E+03  0.83680234849E+03  0.52089622056E+01 0.  0.
         13    1    3    3    0    0 -0.26741291160E+02  0.16892309225E+02 -0.77672600471E+03  0.77736975318E+03  0.00000000000E+00 0.  1.
          3    1    3    3  501    0 -0.75794097684E+00  0.64523918730E+00 -0.59424259164E+02  0.59432595310E+02  0.00000000000E+00 0.  1.
         -3    1    1    2    0  502  0.27499232137E+02 -0.17537548413E+02 -0.16189736471E+03  0.16515002292E+03  0.00000000000E+00 0. -1.
<mgrwt>
<rscale>  1 0.30000000E+03</rscale>
<asrwt>0</asrwt>
<pdfrwt beam="1">  1       21 0.70995474E-02 0.30000000E+03</pdfrwt>
<pdfrwt beam="2">0</pdfrwt>
<totfact> 0.15743369E+04</totfact>
</mgrwt>
</event>
<event>
 6    1  0.1273846E-001  0.3000000E+03  0.7818608E-02  0.1093470E+00
         21   -1    0    0  501  502  0.00000000000E+00  0.00000000000E+00  0.23119661246E+01  0.23119661246E+01  0.00000000000E+00 0. -1.
         13   -1    0    0    0    0 -0.00000000000E+00 -0.00000000000E+00 -0.10000000000E+04  0.10000000000E+04  0.00000000000E+00 0.  1.
    9000005    2    1    2  501    0  0.31284657714E+02 -0.52249209272E+00 -0.87872164117E+03  0.87929974966E+03  0.61093604451E+01 0.  0.
         13    1    3    3    0    0  0.19421989846E+02  0.20021752138E+01 -0.59147460467E+03  0.59179678131E+03  0.00000000000E+00 0.  1.
          3    1    3    3  501    0  0.11862667867E+02 -0.25246673065E+01 -0.28724703650E+03  0.28750296835E+03  0.00000000000E+00 0.  1.
         -1    1    1    2    0  502 -0.31284657714E+02  0.52249209272E+00 -0.11896639271E+03  0.12301221647E+03  0.00000000000E+00 0. -1.
<mgrwt>
<rscale>  1 0.30000000E+03</rscale>
<asrwt>0</asrwt>
<pdfrwt beam="1">  1       21 0.84071673E-02 0.30000000E+03</pdfrwt>
<pdfrwt beam="2">0</pdfrwt>
<totfact> 0.11705669E+04</totfact>
</mgrwt>
</event>
<event>
 6    1  0.1273846E-001  0.3000000E+03  0.7818608E-02  0.1093470E+00
         21   -1    0    0  501  502  0.00000000000E+00  0.00000000000E+00  0.68567644804E+01  0.68567644804E+01  0.00000000000E+00 0. -1.
         13   -1    0    0    0    0 -0.00000000000E+00 -0.00000000000E+00 -0.10000000000E+04  0.10000000000E+04  0.00000000000E+00 0.  1.
    9000005    2    1    2  501    0  0.32158234792E+02 -0.35711689330E+02 -0.90635892979E+03  0.90765498758E+03  0.64490343663E+01 0.  0.
         13    1    3    3    0    0  0.87852470209E+01 -0.13893619923E+02 -0.28417365815E+03  0.28464869792E+03  0.00000000000E+00 0.  1.
          3    1    3    3  501    0  0.23372987772E+02 -0.21818069407E+02 -0.62218527164E+03  0.62300628966E+03  0.00000000000E+00 0.  1.
         -3    1    1    2    0  502 -0.32158234792E+02  0.35711689330E+02 -0.86784305729E+02  0.99201776902E+02  0.00000000000E+00 0. -1.
<mgrwt>
<rscale>  1 0.30000000E+03</rscale>
<asrwt>0</asrwt>
<pdfrwt beam="1">  1       21 0.24933742E-01 0.30000000E+03</pdfrwt>
<pdfrwt beam="2">0</pdfrwt>
<totfact> 0.15677183E+03</totfact>
</mgrwt>
</event>
<event>
 6    1  0.1273846E-001  0.3000000E+03  0.7818608E-02  0.1093470E+00
         21   -1    0    0  501  502  0.00000000000E+00  0.00000000000E+00  0.13203379810E+01  0.13203379810E+01  0.00000000000E+00 0. -1.
         13   -1    0    0    0    0 -0.00000000000E+00 -0.00000000000E+00 -0.10000000000E+04  0.10000000000E+04  0.00000000000E+00 0.  1.
    9000005    2    1    2  501    0 -0.13774760122E+02 -0.29216321772E+02 -0.27370548892E+03  0.27562695291E+03  0.34907064597E+01 0.  0.
         13    1    3    3    0    0 -0.10795030374E+02 -0.25323174028E+02 -0.22607438397E+03  0.22774420500E+03  0.00000000000E+00 0.  1.
          1    1    3    3  501    0 -0.29797297482E+01 -0.38931477440E+01 -0.47631104951E+02  0.47882747912E+02  0.00000000000E+00 0.  1.
         -3    1    1    2    0  502  0.13774760122E+02  0.29216321772E+02 -0.72497417310E+03  0.72569338507E+03  0.00000000000E+00 0. -1.
<mgrwt>
<rscale>  1 0.30000000E+03</rscale>
<asrwt>0</asrwt>
<pdfrwt beam="1">  1       21 0.48012391E-02 0.30000000E+03</pdfrwt>
<pdfrwt beam="2">0</pdfrwt>
<totfact> 0.30864982E+04</totfact>
</mgrwt>
</event>
<event>
 6    1  0.1273846E-001  0.3000000E+03  0.7818608E-02  0.1093470E+00
         21   -1    0    0  501  502  0.00000000000E+00  0.00000000000E+00  0.15856860848E+01  0.15856860848E+01  0.00000000000E+00 0. -1.
         13   -1    0    0    0    0 -0.00000000000E+00 -0.00000000000E+00 -0.10000000000E+04  0.10000000000E+04  0.00000000000E+00 0.  1.
    9000005    2    1    2  501    0 -0.23922016650E+02 -0.28610900072E+02 -0.67355690308E+03  0.67459457939E+03  0.28457636667E+01 0.  0.
         13    1    3    3    0    0 -0.16631398757E+01 -0.26185963718E+01 -0.69383075685E+02  0.69452388532E+02  0.00000000000E+00 0.  1.
          1    1    3    3  501    0 -0.22258876774E+02 -0.25992303700E+02 -0.60417382740E+03  0.60514219086E+03  0.00000000000E+00 0.  1.
         -1    1    1    2    0  502  0.23922016650E+02  0.28610900072E+02 -0.32485741083E+03  0.32699110669E+03  0.00000000000E+00 0. -1.
<mgrwt>
<rscale>  1 0.30000000E+03</rscale>
<asrwt>0</asrwt>
<pdfrwt beam="1">  1       21 0.57661434E-02 0.30000000E+03</pdfrwt>
<pdfrwt beam="2">0</pdfrwt>
<totfact> 0.22565885E+04</totfact>
</mgrwt>
</event>
<event>
 6    1  0.1273846E-001  0.3000000E+03  0.7818608E-02  0.1093470E+00
         21   -1    0    0  501  502  0.00000000000E+00  0.00000000000E+00  0.10555121875E+02  0.10555121875E+02  0.00000000000E+00 0. -1.
         13   -1    0    0    0    0 -0.00000000000E+00 -0.00000000000E+00 -0.10000000000E+04  0.10000000000E+04  0.00000000000E+00 0.  1.
    9000005    2    1    2  501    0  0.24417923172E+02  0.75812631990E+02 -0.81381605619E+03  0.81770991650E+03  0.30239200009E+01 0.  0.
         13    1    3    3    0    0  0.21313479659E+02  0.63795666498E+02 -0.69521961836E+03  0.69846579675E+03  0.00000000000E+00 0.  1.
          3    1    3    3  501    0  0.31044435133E+01  0.12016965492E+02 -0.11859643783E+03  0.11924411975E+03  0.00000000000E+00 0.  1.
         -3    1    1    2    0  502 -0.24417923172E+02 -0.75812631990E+02 -0.17562882194E+03  0.19284520537E+03  0.00000000000E+00 0. -1.
<mgrwt>
<rscale>  1 0.30000000E+03</rscale>
<asrwt>0</asrwt>
<pdfrwt beam="1">  1       21 0.38382342E-01 0.30000000E+03</pdfrwt>
<pdfrwt beam="2">0</pdfrwt>
<totfact> 0.65817483E+02</totfact>
</mgrwt>
</event>
<event>
 6    1  0.1273846E-001  0.3000000E+03  0.7818608E-02  0.1093470E+00
         21   -1    0    0  501  502  0.00000000000E+00  0.00000000000E+00  0.41379439120E+01  0.41379439120E+01  0.00000000000E+00 0. -1.
         13   -1    0    0    0    0 -0.00000000000E+00 -0.00000000000E+00 -0.10000000000E+04  0.10000000000E+04  0.00000000000E+00 0.  1.
    9000005    2    1    2  501    0 -0.41357385824E+02 -0.19343460487E+02 -0.14547241809E+03  0.15252351282E+03  0.40736608618E+01 0.  0.
         13    1    3    3    0    0 -0.14447586538E+02 -0.83386998121E+01 -0.48654768774E+02  0.51434941390E+02  0.00000000000E+00 0.  1.
          3    1    3    3  501    0 -0.26909799286E+02 -0.11004760675E+02 -0.96817649312E+02  0.10108857143E+03  0.00000000000E+00 0.  1.
         -1    1    1    2    0  502  0.41357385824E+02  0.19343460487E+02 -0.85038963800E+03  0.85161443109E+03  0.00000000000E+00 0. -1.
<mgrwt>
<rscale>  1 0.30000000E+03</rscale>
<asrwt>0</asrwt>
<pdfrwt beam="1">  1       21 0.15047101E-01 0.30000000E+03</pdfrwt>
<pdfrwt beam="2">0</pdfrwt>
<totfact> 0.40942048E+03</totfact>
</mgrwt>
</event>
<event>
 6    1  0.1273846E-001  0.3000000E+03  0.7818608E-02  0.1093470E+00
         21   -1    0    0  501  502  0.00000000000E+00  0.00000000000E+00  0.23525072660E+01  0.23525072660E+01  0.00000000000E+00 0. -1.
         13   -1    0    0    0    0 -0.00000000000E+00 -0.00000000000E+00 -0.10000000000E+04  0.10000000000E+04  0.00000000000E+00 0.  1.
    9000005    2    1    2  501    0 -0.38987705183E+02  0.39788894321E+00 -0.79660784570E+03  0.79756691414E+03  0.29535121976E+01 0.  0.
         13    1    3    3    0    0 -0.13070127448E+02 -0.11806921336E+01 -0.27704700079E+03  0.27735764441E+03  0.00000000000E+00 0.  1.
          1    1    3    3  501    0 -0.25917577735E+02  0.15785810768E+01 -0.51956084491E+03  0.52020926974E+03  0.00000000000E+00 0.  1.
         -3    1    1    2    0  502  0.38987705183E+02 -0.39788894321E+00 -0.20103964703E+03  0.20478559312E+03  0.00000000000E+00 0. -1.
<mgrwt>
<rscale>  1 0.30000000E+03</rscale>
<asrwt>0</asrwt>
<pdfrwt beam="1">  1       21 0.85545899E-02 0.30000000E+03</pdfrwt>
<pdfrwt beam="2">0</pdfrwt>
<totfact> 0.11352351E+04</totfact>
</mgrwt>
</event>
<event>
 6    1  0.1273846E-001  0.3000000E+03  0.7818608E-02  0.1093470E+00
         21   -1    0    0  501  502  0.00000000000E+00  0.00000000000E+00  0.12757966511E+01  0.12757966511E+01  0.00000000000E+00 0. -1.
         13   -1    0    0    0    0 -0.00000000000E+00 -0.00000000000E+00 -0.10000000000E+04  0.10000000000E+04  0.00000000000E+00 0.  1.
    9000005    2    1    2  501    0 -0.28893195562E+02  0.19809164514E+02 -0.40801096600E+03  0.40952471002E+03  0.32124745963E+01 0.  0.
         13    1    3    3    0    0 -0.28866703180E+02  0.19600824770E+02 -0.40244092725E+03  0.40395071335E+03  0.00000000000E+00 0.  1.
          3    1    3    3  501    0 -0.26492382571E-01  0.20833974380E+00 -0.55700387493E+01  0.55739966777E+01  0.00000000000E+00 0.  1.
         -1    1    1    2    0  502  0.28893195562E+02 -0.19809164514E+02 -0.59071323735E+03  0.59175108663E+03  0.00000000000E+00 0. -1.
<mgrwt>
<rscale>  1 0.30000000E+03</rscale>
<asrwt>0</asrwt>
<pdfrwt beam="1">  1       21 0.46392703E-02 0.30000000E+03</pdfrwt>
<pdfrwt beam="2">0</pdfrwt>
<totfact> 0.32719731E+04</totfact>
</mgrwt>
</event>
<event>
 6    1  0.1273846E-001  0.3000000E+03  0.7818608E-02  0.1093470E+00
         21   -1    0    0  501  502  0.00000000000E+00  0.00000000000E+00  0.96935885690E+00  0.96935885690E+00  0.00000000000E+00 0. -1.
         13   -1    0    0    0    0 -0.00000000000E+00 -0.00000000000E+00 -0.10000000000E+04  0.10000000000E+04  0.00000000000E+00 0.  1.
    9000005    2    1    2  501    0  0.27608146098E+02  0.13790788424E+02 -0.44630335646E+03  0.44738120255E+03  0.32952733254E+01 0.  0.
         13    1    3    3    0    0  0.24313870725E+02  0.12885192102E+02 -0.38440419803E+03  0.38538783056E+03  0.00000000000E+00 0.  1.
          1    1    3    3  501    0  0.32942753731E+01  0.90559632150E+00 -0.61899158435E+02  0.61993371984E+02  0.00000000000E+00 0.  1.
         -1    1    1    2    0  502 -0.27608146098E+02 -0.13790788424E+02 -0.55272728468E+03  0.55358815631E+03  0.00000000000E+00 0. -1.
<mgrwt>
<rscale>  1 0.30000000E+03</rscale>
<asrwt>0</asrwt>
<pdfrwt beam="1">  1       21 0.35249487E-02 0.30000000E+03</pdfrwt>
<pdfrwt beam="2">0</pdfrwt>
<totfact> 0.51994549E+04</totfact>
</mgrwt>
</event>
<event>
 6    1  0.1273846E-001  0.3000000E+03  0.7818608E-02  0.1093470E+00
         21   -1    0    0  501  502  0.00000000000E+00  0.00000000000E+00  0.16600723103E+01  0.16600723103E+01  0.00000000000E+00 0. -1.
         13   -1    0    0    0    0 -0.00000000000E+00 -0.00000000000E+00 -0.10000000000E+04  0.10000000000E+04  0.00000000000E+00 0.  1.
    9000005    2    1    2  501    0  0.25557069450E+02 -0.28968774778E+02 -0.65618484294E+03  0.65733107886E+03  0.36394256012E+01 0.  0.
         13    1    3    3    0    0  0.16568393138E+02 -0.19492547532E+02 -0.40547303726E+03  0.40627928203E+03  0.00000000000E+00 0.  1.
          3    1    3    3  501    0  0.89886763120E+01 -0.94762272462E+01 -0.25071180568E+03  0.25105179683E+03  0.00000000000E+00 0.  1.
         -1    1    1    2    0  502 -0.25557069450E+02  0.28968774778E+02 -0.34215508475E+03  0.34432899345E+03  0.00000000000E+00 0. -1.
<mgrwt>
<rscale>  1 0.30000000E+03</rscale>
<asrwt>0</asrwt>
<pdfrwt beam="1">  1       21 0.60366393E-02 0.30000000E+03</pdfrwt>
<pdfrwt beam="2">0</pdfrwt>
<totfact> 0.20851552E+04</totfact>
</mgrwt>
</event>
<event>
 6    1  0.1273846E-001  0.3000000E+03  0.7818608E-02  0.1093470E+00
         21   -1    0    0  501  502  0.00000000000E+00  0.00000000000E+00  0.54190317074E+01  0.54190317074E+01  0.00000000000E+00 0. -1.
         13   -1    0    0    0    0 -0.00000000000E+00 -0.00000000000E+00 -0.10000000000E+04  0.10000000000E+04  0.00000000000E+00 0.  1.
    9000005    2    1    2  501    0 -0.17964069572E+02 -0.45396605775E+02 -0.87344456564E+03  0.87481433172E+03  0.33385809870E+01 0.  0.
         13    1    3    3    0    0 -0.60046125341E+01 -0.18530271278E+02 -0.32905779599E+03  0.32963382628E+03  0.00000000000E+00 0.  1.
          3    1    3    3  501    0 -0.11959457038E+02 -0.26866334497E+02 -0.54438676965E+03  0.54518050544E+03  0.00000000000E+00 0.  1.
         -3    1    1    2    0  502  0.17964069572E+02  0.45396605775E+02 -0.12113640265E+03  0.13060469999E+03  0.00000000000E+00 0. -1.
<mgrwt>
<rscale>  1 0.30000000E+03</rscale>
<asrwt>0</asrwt>
<pdfrwt beam="1">  1       21 0.19705611E-01 0.30000000E+03</pdfrwt>
<pdfrwt beam="2">0</pdfrwt>
<totfact> 0.24680334E+03</totfact>
</mgrwt>
</event>
<event>
 6    1  0.1273846E-001  0.3000000E+03  0.7818608E-02  0.1093470E+00
         21   -1    0    0  501  502  0.00000000000E+00  0.00000000000E+00  0.11638484866E+01  0.11638484866E+01  0.00000000000E+00 0. -1.
         13   -1    0    0    0    0 -0.00000000000E+00 -0.00000000000E+00 -0.10000000000E+04  0.10000000000E+04  0.00000000000E+00 0.  1.
    9000005    2    1    2  501    0 -0.27290583491E+02  0.14126662311E+02 -0.71526274664E+03  0.71593023460E+03  0.33114283937E+01 0.  0.
         13    1    3    3    0    0 -0.16660159429E+00  0.55192215728E+00 -0.12967195568E+02  0.12980005202E+02  0.00000000000E+00 0.  1.
          1    1    3    3  501    0 -0.27123981897E+02  0.13574740154E+02 -0.70229555107E+03  0.70295022940E+03  0.00000000000E+00 0.  1.
         -1    1    1    2    0  502  0.27290583491E+02 -0.14126662311E+02 -0.28357340488E+03  0.28523361388E+03  0.00000000000E+00 0. -1.
<mgrwt>
<rscale>  1 0.30000000E+03</rscale>
<asrwt>0</asrwt>
<pdfrwt beam="1">  1       21 0.42321852E-02 0.30000000E+03</pdfrwt>
<pdfrwt beam="2">0</pdfrwt>
<totfact> 0.38230324E+04</totfact>
</mgrwt>
</event>
<event>
 6    1  0.1273846E-001  0.3000000E+03  0.7818608E-02  0.1093470E+00
         21   -1    0    0  501  502  0.00000000000E+00  0.00000000000E+00  0.14678869863E+01  0.14678869863E+01  0.00000000000E+00 0. -1.
         13   -1    0    0    0    0 -0.00000000000E+00 -0.00000000000E+00 -0.10000000000E+04  0.10000000000E+04  0.00000000000E+00 0.  1.
    9000005    2    1    2  501    0 -0.20942697743E+02 -0.26408627445E+02 -0.73689023652E+03  0.73766401339E+03  0.22279522684E+01 0.  0.
         13    1    3    3    0    0 -0.36259314079E+01 -0.33121924847E+01 -0.10783069612E+03  0.10794247089E+03  0.00000000000E+00 0.  1.
          3    1    3    3  501    0 -0.17316766335E+02 -0.23096434961E+02 -0.62905954041E+03  0.62972154249E+03  0.00000000000E+00 0.  1.
         -1    1    1    2    0  502  0.20942697743E+02  0.26408627445E+02 -0.26164187649E+03  0.26380387360E+03  0.00000000000E+00 0. -1.
<mgrwt>
<rscale>  1 0.30000000E+03</rscale>
<asrwt>0</asrwt>
<pdfrwt beam="1">  1       21 0.53377821E-02 0.30000000E+03</pdfrwt>
<pdfrwt beam="2">0</pdfrwt>
<totfact> 0.25761899E+04</totfact>
</mgrwt>
</event>
<event>
 6    1  0.1273846E-001  0.3000000E+03  0.7818608E-02  0.1093470E+00
         21   -1    0    0  501  502  0.00000000000E+00  0.00000000000E+00  0.56291865324E+01  0.56291865324E+01  0.00000000000E+00 0. -1.
         13   -1    0    0    0    0 -0.00000000000E+00 -0.00000000000E+00 -0.10000000000E+04  0.10000000000E+04  0.00000000000E+00 0.  1.
    9000005    2    1    2  501    0  0.42546760894E+02 -0.19773166328E+02 -0.88949425980E+03  0.89073664335E+03  0.32441676769E+01 0.  0.
         13    1    3    3    0    0  0.69386420033E+01 -0.25661032406E+01 -0.12190372776E+03  0.12212800039E+03  0.00000000000E+00 0.  1.
          3    1    3    3  501    0  0.35608118890E+02 -0.17207063087E+02 -0.76759053205E+03  0.76860864296E+03  0.00000000000E+00 0.  1.
         -3    1    1    2    0  502 -0.42546760894E+02  0.19773166328E+02 -0.10487655366E+03  0.11489254318E+03  0.00000000000E+00 0. -1.
<mgrwt>
<rscale>  1 0.30000000E+03</rscale>
<asrwt>0</asrwt>
<pdfrwt beam="1">  1       21 0.20469812E-01 0.30000000E+03</pdfrwt>
<pdfrwt beam="2">0</pdfrwt>
<totfact> 0.22950919E+03</totfact>
</mgrwt>
</event>
<event>
 6    1  0.1273846E-001  0.3000000E+03  0.7818608E-02  0.1093470E+00
         21   -1    0    0  501  502  0.00000000000E+00  0.00000000000E+00  0.14985179533E+01  0.14985179533E+01  0.00000000000E+00 0. -1.
         13   -1    0    0    0    0 -0.00000000000E+00 -0.00000000000E+00 -0.10000000000E+04  0.10000000000E+04  0.00000000000E+00 0.  1.
    9000005    2    1    2  501    0  0.31386513651E+02  0.11875882489E+02 -0.74413507297E+03  0.74492802104E+03  0.73891724657E+01 0.  0.
         13    1    3    3    0    0  0.14678413265E+02  0.21593161681E+01 -0.28416497106E+03  0.28455201500E+03  0.00000000000E+00 0.  1.
          1    1    3    3  501    0  0.16708100386E+02  0.97165663211E+01 -0.45997010192E+03  0.46037600604E+03  0.00000000000E+00 0.  1.
         -1    1    1    2    0  502 -0.31386513651E+02 -0.11875882489E+02 -0.25436640907E+03  0.25657049692E+03  0.00000000000E+00 0. -1.
<mgrwt>
<rscale>  1 0.30000000E+03</rscale>
<asrwt>0</asrwt>
<pdfrwt beam="1">  1       21 0.54491677E-02 0.30000000E+03</pdfrwt>
<pdfrwt beam="2">0</pdfrwt>
<totfact> 0.24866789E+04</totfact>
</mgrwt>
</event>
<event>
 6    1  0.1273846E-001  0.3000000E+03  0.7818608E-02  0.1093470E+00
         21   -1    0    0  501  502  0.00000000000E+00  0.00000000000E+00  0.32428875530E+01  0.32428875530E+01  0.00000000000E+00 0. -1.
         13   -1    0    0    0    0 -0.00000000000E+00 -0.00000000000E+00 -0.10000000000E+04  0.10000000000E+04  0.00000000000E+00 0.  1.
    9000005    2    1    2  501    0 -0.35424542732E+02  0.40039210622E+02 -0.67029370005E+03  0.67243116429E+03  0.34626240346E+01 0.  0.
         13    1    3    3    0    0 -0.22583522525E+02  0.24118617758E+02 -0.39619416643E+03  0.39756954200E+03  0.00000000000E+00 0.  1.
          1    1    3    3  501    0 -0.12841020208E+02  0.15920592864E+02 -0.27409953361E+03  0.27486162228E+03  0.00000000000E+00 0.  1.
         -1    1    1    2    0  502  0.35424542732E+02 -0.40039210622E+02 -0.32646341240E+03  0.33081172327E+03  0.00000000000E+00 0. -1.
<mgrwt>
<rscale>  1 0.30000000E+03</rscale>
<asrwt>0</asrwt>
<pdfrwt beam="1">  1       21 0.11792343E-01 0.30000000E+03</pdfrwt>
<pdfrwt beam="2">0</pdfrwt>
<totfact> 0.63963963E+03</totfact>
</mgrwt>
</event>
<event>
 6    1  0.1273846E-001  0.3000000E+03  0.7818608E-02  0.1093470E+00
         21   -1    0    0  501  502  0.00000000000E+00  0.00000000000E+00  0.18591487210E+01  0.18591487210E+01  0.00000000000E+00 0. -1.
         13   -1    0    0    0    0 -0.00000000000E+00 -0.00000000000E+00 -0.10000000000E+04  0.10000000000E+04  0.00000000000E+00 0.  1.
    9000005    2    1    2  501    0 -0.32058123539E+02 -0.23501497032E+02 -0.69173985643E+03  0.69289052039E+03  0.36332666357E+01 0.  0.
         13    1    3    3    0    0 -0.18656111634E+02 -0.13114394425E+02 -0.36616422621E+03  0.36687365455E+03  0.00000000000E+00 0.  1.
          1    1    3    3  501    0 -0.13402011905E+02 -0.10387102607E+02 -0.32557563022E+03  0.32601686585E+03  0.00000000000E+00 0.  1.
         -3    1    1    2    0  502  0.32058123539E+02  0.23501497032E+02 -0.30640099485E+03  0.30896862833E+03  0.00000000000E+00 0. -1.
<mgrwt>
<rscale>  1 0.30000000E+03</rscale>
<asrwt>0</asrwt>
<pdfrwt beam="1">  1       21 0.67605551E-02 0.30000000E+03</pdfrwt>
<pdfrwt beam="2">0</pdfrwt>
<totfact> 0.17141456E+04</totfact>
</mgrwt>
</event>
<event>
 6    1  0.1273846E-001  0.3000000E+03  0.7818608E-02  0.1093470E+00
         21   -1    0    0  501  502  0.00000000000E+00  0.00000000000E+00  0.12144935080E+01  0.12144935080E+01  0.00000000000E+00 0. -1.
         13   -1    0    0    0    0 -0.00000000000E+00 -0.00000000000E+00 -0.10000000000E+04  0.10000000000E+04  0.00000000000E+00 0.  1.
    9000005    2    1    2  501    0 -0.31965687550E+02  0.13695152630E+02 -0.50210859318E+03  0.50332161487E+03  0.32009778682E+01 0.  0.
         13    1    3    3    0    0 -0.16699251910E+01  0.14877245227E+01 -0.37018961883E+02  0.37086459973E+02  0.00000000000E+00 0.  1.
          3    1    3    3  501    0 -0.30295762359E+02  0.12207428107E+02 -0.46508963130E+03  0.46623515489E+03  0.00000000000E+00 0.  1.
         -3    1    1    2    0  502  0.31965687550E+02 -0.13695152630E+02 -0.49667691331E+03  0.49789287864E+03  0.00000000000E+00 0. -1.
<mgrwt>
<rscale>  1 0.30000000E+03</rscale>
<asrwt>0</asrwt>
<pdfrwt beam="1">  1       21 0.44163493E-02 0.30000000E+03</pdfrwt>
<pdfrwt beam="2">0</pdfrwt>
<totfact> 0.35572180E+04</totfact>
</mgrwt>
</event>
<event>
 6    1  0.1273846E-001  0.3000000E+03  0.7818608E-02  0.1093470E+00
         21   -1    0    0  501  502  0.00000000000E+00  0.00000000000E+00  0.19826430738E+01  0.19826430738E+01  0.00000000000E+00 0. -1.
         13   -1    0    0    0    0 -0.00000000000E+00 -0.00000000000E+00 -0.10000000000E+04  0.10000000000E+04  0.00000000000E+00 0.  1.
    9000005    2    1    2  501    0 -0.43370072917E+02  0.67746299980E+01 -0.57701303224E+03  0.57869609682E+03  0.42748405291E+01 0.  0.
         13    1    3    3    0    0 -0.94187980645E+01  0.18424124529E+01 -0.10486622500E+03  0.10530447942E+03  0.00000000000E+00 0.  1.
          1    1    3    3  501    0 -0.33951274852E+02  0.49322175451E+01 -0.47214680724E+03  0.47339161740E+03  0.00000000000E+00 0.  1.
         -1    1    1    2    0  502  0.43370072917E+02 -0.67746299980E+01 -0.42100432468E+03  0.42328654625E+03  0.00000000000E+00 0. -1.
<mgrwt>
<rscale>  1 0.30000000E+03</rscale>
<asrwt>0</asrwt>
<pdfrwt beam="1">  1       21 0.72096264E-02 0.30000000E+03</pdfrwt>
<pdfrwt beam="2">0</pdfrwt>
<totfact> 0.15326645E+04</totfact>
</mgrwt>
</event>
<event>
 6    1  0.1273846E-001  0.3000000E+03  0.7818608E-02  0.1093470E+00
         21   -1    0    0  501  502  0.00000000000E+00  0.00000000000E+00  0.16761400329E+01  0.16761400329E+01  0.00000000000E+00 0. -1.
         13   -1    0    0    0    0 -0.00000000000E+00 -0.00000000000E+00 -0.10000000000E+04  0.10000000000E+04  0.00000000000E+00 0.  1.
    9000005    2    1    2  501    0 -0.31175769043E+02 -0.16482979881E+02 -0.24676999232E+03  0.24929536331E+03  0.30218965747E+01 0.  0.
         13    1    3    3    0    0 -0.79775708848E+01 -0.42470498396E+01 -0.54378925456E+02  0.55124827468E+02  0.00000000000E+00 0.  1.
          1    1    3    3  501    0 -0.23198198159E+02 -0.12235930042E+02 -0.19239106686E+03  0.19417053584E+03  0.00000000000E+00 0.  1.
         -3    1    1    2    0  502  0.31175769043E+02  0.16482979881E+02 -0.75155386765E+03  0.75238077672E+03  0.00000000000E+00 0. -1.
<mgrwt>
<rscale>  1 0.30000000E+03</rscale>
<asrwt>0</asrwt>
<pdfrwt beam="1">  1       21 0.60950675E-02 0.30000000E+03</pdfrwt>
<pdfrwt beam="2">0</pdfrwt>
<totfact> 0.20507867E+04</totfact>
</mgrwt>
</event>
<event>
 6    1  0.1273846E-001  0.3000000E+03  0.7818608E-02  0.1093470E+00
         21   -1    0    0  501  502  0.00000000000E+00  0.00000000000E+00  0.46539119518E+01  0.46539119518E+01  0.00000000000E+00 0. -1.
         13   -1    0    0    0    0 -0.00000000000E+00 -0.00000000000E+00 -0.10000000000E+04  0.10000000000E+04  0.00000000000E+00 0.  1.
    9000005    2    1    2  501    0 -0.23092916083E+01  0.38761990064E+02 -0.91063064054E+03  0.91146307684E+03  0.29920327827E+01 0.  0.
         13    1    3    3    0    0 -0.19363299627E+01  0.10638325852E+02 -0.24544289069E+03  0.24568096373E+03  0.00000000000E+00 0.  1.
          3    1    3    3  501    0 -0.37296164559E+00  0.28123664211E+02 -0.66518774985E+03  0.66578211311E+03  0.00000000000E+00 0.  1.
         -1    1    1    2    0  502  0.23092916083E+01 -0.38761990064E+02 -0.84715447511E+02  0.93190835110E+02  0.00000000000E+00 0. -1.
<mgrwt>
<rscale>  1 0.30000000E+03</rscale>
<asrwt>0</asrwt>
<pdfrwt beam="1">  1       21 0.16923352E-01 0.30000000E+03</pdfrwt>
<pdfrwt beam="2">0</pdfrwt>
<totfact> 0.32892371E+03</totfact>
</mgrwt>
</event>
<event>
 6    1  0.1273846E-001  0.3000000E+03  0.7818608E-02  0.1093470E+00
         21   -1    0    0  501  502  0.00000000000E+00  0.00000000000E+00  0.22759055338E+01  0.22759055338E+01  0.00000000000E+00 0. -1.
         13   -1    0    0    0    0 -0.00000000000E+00 -0.00000000000E+00 -0.10000000000E+04  0.10000000000E+04  0.00000000000E+00 0.  1.
    9000005    2    1    2  501    0 -0.15066070489E+02  0.26766159726E+02 -0.88103327716E+03  0.88161041490E+03  0.85950223599E+01 0.  0.
         13    1    3    3    0    0 -0.11376321073E+02  0.11815417053E+02 -0.42058342016E+03  0.42090312196E+03  0.00000000000E+00 0.  1.
          3    1    3    3  501    0 -0.36897494163E+01  0.14950742673E+02 -0.46044985700E+03  0.46070729294E+03  0.00000000000E+00 0.  1.
         -3    1    1    2    0  502  0.15066070489E+02 -0.26766159726E+02 -0.11669081731E+03  0.12066549063E+03  0.00000000000E+00 0. -1.
<mgrwt>
<rscale>  1 0.30000000E+03</rscale>
<asrwt>0</asrwt>
<pdfrwt beam="1">  1       21 0.82760376E-02 0.30000000E+03</pdfrwt>
<pdfrwt beam="2">0</pdfrwt>
<totfact> 0.12034256E+04</totfact>
</mgrwt>
</event>
<event>
 6    1  0.1273846E-001  0.3000000E+03  0.7818608E-02  0.1093470E+00
         21   -1    0    0  501  502  0.00000000000E+00  0.00000000000E+00  0.47523424450E+01  0.47523424450E+01  0.00000000000E+00 0. -1.
         13   -1    0    0    0    0 -0.00000000000E+00 -0.00000000000E+00 -0.10000000000E+04  0.10000000000E+04  0.00000000000E+00 0.  1.
    9000005    2    1    2  501    0  0.22101008489E+02  0.44320835396E+02 -0.84694948294E+03  0.84840292729E+03  0.33629374847E+01 0.  0.
         13    1    3    3    0    0  0.19309912253E+02  0.35919928353E+02 -0.69078254541E+03  0.69198528814E+03  0.00000000000E+00 0.  1.
          3    1    3    3  501    0  0.27910962361E+01  0.84009070431E+01 -0.15616693753E+03  0.15641763914E+03  0.00000000000E+00 0.  1.
         -1    1    1    2    0  502 -0.22101008489E+02 -0.44320835396E+02 -0.14829817461E+03  0.15634941516E+03  0.00000000000E+00 0. -1.
<mgrwt>
<rscale>  1 0.30000000E+03</rscale>
<asrwt>0</asrwt>
<pdfrwt beam="1">  1       21 0.17281282E-01 0.30000000E+03</pdfrwt>
<pdfrwt beam="2">0</pdfrwt>
<totfact> 0.31627272E+03</totfact>
</mgrwt>
</event>
<event>
 6    1  0.1273846E-001  0.3000000E+03  0.7818608E-02  0.1093470E+00
         21   -1    0    0  501  502  0.00000000000E+00  0.00000000000E+00  0.16339659634E+01  0.16339659634E+01  0.00000000000E+00 0. -1.
         13   -1    0    0    0    0 -0.00000000000E+00 -0.00000000000E+00 -0.10000000000E+04  0.10000000000E+04  0.00000000000E+00 0.  1.
    9000005    2    1    2  501    0 -0.40641110615E+01 -0.37987450539E+02 -0.33972796505E+03  0.34188881114E+03  0.36476769520E+01 0.  0.
         13    1    3    3    0    0 -0.29240427006E+01 -0.35581582928E+02 -0.31840391213E+03  0.32039920464E+03  0.00000000000E+00 0.  1.
          1    1    3    3  501    0 -0.11400683610E+01 -0.24058676108E+01 -0.21324052913E+02  0.21489606499E+02  0.00000000000E+00 0.  1.
         -1    1    1    2    0  502  0.40641110615E+01  0.37987450539E+02 -0.65863806899E+03  0.65974515483E+03  0.00000000000E+00 0. -1.
<mgrwt>
<rscale>  1 0.30000000E+03</rscale>
<asrwt>0</asrwt>
<pdfrwt beam="1">  1       21 0.59417069E-02 0.30000000E+03</pdfrwt>
<pdfrwt beam="2">0</pdfrwt>
<totfact> 0.21429399E+04</totfact>
</mgrwt>
</event>
<event>
 6    1  0.1273846E-001  0.3000000E+03  0.7818608E-02  0.1093470E+00
         21   -1    0    0  501  502  0.00000000000E+00  0.00000000000E+00  0.15489852112E+01  0.15489852112E+01  0.00000000000E+00 0. -1.
         13   -1    0    0    0    0 -0.00000000000E+00 -0.00000000000E+00 -0.10000000000E+04  0.10000000000E+04  0.00000000000E+00 0.  1.
    9000005    2    1    2  501    0 -0.28873820238E+02 -0.18806559490E+02 -0.74018789201E+03  0.74099721538E+03  0.33724689504E+01 0.  0.
         13    1    3    3    0    0 -0.18992834483E+02 -0.10903951455E+02 -0.49148449896E+03  0.49197219092E+03  0.00000000000E+00 0.  1.
          1    1    3    3  501    0 -0.98809857546E+01 -0.79026080352E+01 -0.24870339306E+03  0.24902502447E+03  0.00000000000E+00 0.  1.
         -3    1    1    2    0  502  0.28873820238E+02  0.18806559490E+02 -0.25826312278E+03  0.26055176983E+03  0.00000000000E+00 0. -1.
<mgrwt>
<rscale>  1 0.30000000E+03</rscale>
<asrwt>0</asrwt>
<pdfrwt beam="1">  1       21 0.56326854E-02 0.30000000E+03</pdfrwt>
<pdfrwt beam="2">0</pdfrwt>
<totfact> 0.23493071E+04</totfact>
</mgrwt>
</event>
<event>
 6    1  0.1273846E-001  0.3000000E+03  0.7818608E-02  0.1093470E+00
         21   -1    0    0  501  502  0.00000000000E+00  0.00000000000E+00  0.93132258806E+00  0.93132258806E+00  0.00000000000E+00 0. -1.
         13   -1    0    0    0    0 -0.00000000000E+00 -0.00000000000E+00 -0.10000000000E+04  0.10000000000E+04  0.00000000000E+00 0.  1.
    9000005    2    1    2  501    0 -0.19713829458E+01  0.30192832763E+02 -0.55680519750E+03  0.55763404179E+03  0.28641048700E+01 0.  0.
         13    1    3    3    0    0 -0.18457232238E+01  0.84984021457E+01 -0.16144246655E+03  0.16167652749E+03  0.00000000000E+00 0.  1.
          3    1    3    3  501    0 -0.12565972203E+00  0.21694430618E+02 -0.39536273095E+03  0.39595751430E+03  0.00000000000E+00 0.  1.
         -3    1    1    2    0  502  0.19713829458E+01 -0.30192832763E+02 -0.44226347991E+03  0.44329728080E+03  0.00000000000E+00 0. -1.
<mgrwt>
<rscale>  1 0.30000000E+03</rscale>
<asrwt>0</asrwt>
<pdfrwt beam="1">  1       21 0.33866347E-02 0.30000000E+03</pdfrwt>
<pdfrwt beam="2">0</pdfrwt>
<totfact> 0.55595704E+04</totfact>
</mgrwt>
</event>
<event>
 6    1  0.1273846E-001  0.3000000E+03  0.7818608E-02  0.1093470E+00
         21   -1    0    0  501  502  0.00000000000E+00  0.00000000000E+00  0.15245077218E+01  0.15245077218E+01  0.00000000000E+00 0. -1.
         13   -1    0    0    0    0 -0.00000000000E+00 -0.00000000000E+00 -0.10000000000E+04  0.10000000000E+04  0.00000000000E+00 0.  1.
    9000005    2    1    2  501    0 -0.32388859876E+02 -0.68854056131E+00 -0.77809579984E+03  0.77877639623E+03  0.31763612258E+01 0.  0.
         13    1    3    3    0    0 -0.29585387718E+02 -0.63272623275E+00 -0.72927147448E+03  0.72987161816E+03  0.00000000000E+00 0.  1.
          1    1    3    3  501    0 -0.28034721576E+01 -0.55814328558E-01 -0.48824325365E+02  0.48904778076E+02  0.00000000000E+00 0.  1.
         -3    1    1    2    0  502  0.32388859876E+02  0.68854056131E+00 -0.22037969244E+03  0.22274811149E+03  0.00000000000E+00 0. -1.
<mgrwt>
<rscale>  1 0.30000000E+03</rscale>
<asrwt>0</asrwt>
<pdfrwt beam="1">  1       21 0.55436761E-02 0.30000000E+03</pdfrwt>
<pdfrwt beam="2">0</pdfrwt>
<totfact> 0.24144359E+04</totfact>
</mgrwt>
</event>
<event>
 6    1  0.1273846E-001  0.3000000E+03  0.7818608E-02  0.1093470E+00
         21   -1    0    0  501  502  0.00000000000E+00  0.00000000000E+00  0.16575851011E+01  0.16575851011E+01  0.00000000000E+00 0. -1.
         13   -1    0    0    0    0 -0.00000000000E+00 -0.00000000000E+00 -0.10000000000E+04  0.10000000000E+04  0.00000000000E+00 0.  1.
    9000005    2    1    2  501    0 -0.14394914373E+02 -0.35541011743E+02 -0.66580289660E+03  0.66691453692E+03  0.33354696658E+01 0.  0.
         13    1    3    3    0    0 -0.43120501855E+01 -0.75290341637E+01 -0.13754985078E+03  0.13782322584E+03  0.00000000000E+00 0.  1.
          3    1    3    3  501    0 -0.10082864188E+02 -0.28011977580E+02 -0.52825304582E+03  0.52909131108E+03  0.00000000000E+00 0.  1.
         -1    1    1    2    0  502  0.14394914373E+02  0.35541011743E+02 -0.33253951830E+03  0.33474304818E+03  0.00000000000E+00 0. -1.
<mgrwt>
<rscale>  1 0.30000000E+03</rscale>
<asrwt>0</asrwt>
<pdfrwt beam="1">  1       21 0.60275949E-02 0.30000000E+03</pdfrwt>
<pdfrwt beam="2">0</pdfrwt>
<totfact> 0.20905553E+04</totfact>
</mgrwt>
</event>
<event>
 6    1  0.1273846E-001  0.3000000E+03  0.7818608E-02  0.1093470E+00
         21   -1    0    0  501  502  0.00000000000E+00  0.00000000000E+00  0.31923701773E+02  0.31923701773E+02  0.00000000000E+00 0. -1.
         13   -1    0    0    0    0 -0.00000000000E+00 -0.00000000000E+00 -0.10000000000E+04  0.10000000000E+04  0.00000000000E+00 0.  1.
    9000005    2    1    2  501    0  0.10937705178E+03  0.11442197740E+03 -0.24489625763E+03  0.29162301996E+03  0.37523865416E+01 0.  0.
         13    1    3    3    0    0  0.74342032563E+02  0.75461017528E+02 -0.16523607888E+03  0.19627548175E+03  0.00000000000E+00 0.  1.
          1    1    3    3  501    0  0.35035019218E+02  0.38960959869E+02 -0.79660178743E+02  0.95347538211E+02  0.00000000000E+00 0.  1.
         -1    1    1    2    0  502 -0.10937705178E+03 -0.11442197740E+03 -0.72318004060E+03  0.74030068181E+03  0.00000000000E+00 0. -1.
<mgrwt>
<rscale>  1 0.30000000E+03</rscale>
<asrwt>0</asrwt>
<pdfrwt beam="1">  1       21 0.11608643E+00 0.30000000E+03</pdfrwt>
<pdfrwt beam="2">0</pdfrwt>
<totfact> 0.49689763E+01</totfact>
</mgrwt>
</event>
<event>
 6    1  0.1273846E-001  0.3000000E+03  0.7818608E-02  0.1093470E+00
         21   -1    0    0  501  502  0.00000000000E+00  0.00000000000E+00  0.16485575318E+01  0.16485575318E+01  0.00000000000E+00 0. -1.
         13   -1    0    0    0    0 -0.00000000000E+00 -0.00000000000E+00 -0.10000000000E+04  0.10000000000E+04  0.00000000000E+00 0.  1.
    9000005    2    1    2  501    0  0.32339457099E+02 -0.99559506677E+01 -0.22436144367E+03  0.22691926308E+03  0.30550143697E+01 0.  0.
         13    1    3    3    0    0  0.28884297733E+02 -0.88741810056E+01 -0.20598966435E+03  0.20819412951E+03  0.00000000000E+00 0.  1.
          1    1    3    3  501    0  0.34551593662E+01 -0.10817696621E+01 -0.18371779325E+02  0.18725133575E+02  0.00000000000E+00 0.  1.
         -1    1    1    2    0  502 -0.32339457099E+02  0.99559506677E+01 -0.77398999880E+03  0.77472929445E+03  0.00000000000E+00 0. -1.
<mgrwt>
<rscale>  1 0.30000000E+03</rscale>
<asrwt>0</asrwt>
<pdfrwt beam="1">  1       21 0.59947673E-02 0.30000000E+03</pdfrwt>
<pdfrwt beam="2">0</pdfrwt>
<totfact> 0.21103396E+04</totfact>
</mgrwt>
</event>
<event>
 6    1  0.1273846E-001  0.3000000E+03  0.7818608E-02  0.1093470E+00
         21   -1    0    0  501  502  0.00000000000E+00  0.00000000000E+00  0.12222418002E+01  0.12222418002E+01  0.00000000000E+00 0. -1.
         13   -1    0    0    0    0 -0.00000000000E+00 -0.00000000000E+00 -0.10000000000E+04  0.10000000000E+04  0.00000000000E+00 0.  1.
    9000005    2    1    2  501    0  0.29530362079E+02 -0.14832532461E+02 -0.66026692382E+03  0.66110221697E+03  0.34182271836E+01 0.  0.
         13    1    3    3    0    0  0.26757448163E+02 -0.12338828656E+02 -0.59420789108E+03  0.59493800144E+03  0.00000000000E+00 0.  1.
          1    1    3    3  501    0  0.27729139163E+01 -0.24937038052E+01 -0.66059032739E+02  0.66164215529E+02  0.00000000000E+00 0.  1.
         -3    1    1    2    0  502 -0.29530362079E+02  0.14832532461E+02 -0.33851083438E+03  0.34012002484E+03  0.00000000000E+00 0. -1.
<mgrwt>
<rscale>  1 0.30000000E+03</rscale>
<asrwt>0</asrwt>
<pdfrwt beam="1">  1       21 0.44445250E-02 0.30000000E+03</pdfrwt>
<pdfrwt beam="2">0</pdfrwt>
<totfact> 0.35190825E+04</totfact>
</mgrwt>
</event>
<event>
 6    1  0.1273846E-001  0.3000000E+03  0.7818608E-02  0.1093470E+00
         21   -1    0    0  501  502  0.00000000000E+00  0.00000000000E+00  0.25618890760E+01  0.25618890760E+01  0.00000000000E+00 0. -1.
         13   -1    0    0    0    0 -0.00000000000E+00 -0.00000000000E+00 -0.10000000000E+04  0.10000000000E+04  0.00000000000E+00 0.  1.
    9000005    2    1    2  501    0 -0.29335227148E+02  0.16503689621E+02 -0.87289414882E+03  0.87354977407E+03  0.34764065766E+01 0.  0.
         13    1    3    3    0    0 -0.25483260818E+02  0.15509721145E+02 -0.78107838130E+03  0.78164786558E+03  0.00000000000E+00 0.  1.
          3    1    3    3  501    0 -0.38519663299E+01  0.99396847587E+00 -0.91815767524E+02  0.91901908489E+02  0.00000000000E+00 0.  1.
         -3    1    1    2    0  502  0.29335227148E+02 -0.16503689621E+02 -0.12454396210E+03  0.12901211501E+03  0.00000000000E+00 0. -1.
<mgrwt>
<rscale>  1 0.30000000E+03</rscale>
<asrwt>0</asrwt>
<pdfrwt beam="1">  1       21 0.93159799E-02 0.30000000E+03</pdfrwt>
<pdfrwt beam="2">0</pdfrwt>
<totfact> 0.97616573E+03</totfact>
</mgrwt>
</event>
<event>
 6    1  0.1273846E-001  0.3000000E+03  0.7818608E-02  0.1093470E+00
         21   -1    0    0  501  502  0.00000000000E+00  0.00000000000E+00  0.19060816250E+01  0.19060816250E+01  0.00000000000E+00 0. -1.
         13   -1    0    0    0    0 -0.00000000000E+00 -0.00000000000E+00 -0.10000000000E+04  0.10000000000E+04  0.00000000000E+00 0.  1.
    9000005    2    1    2  501    0  0.36905203239E+01  0.40766930556E+02 -0.67176342791E+03  0.67301833242E+03  0.34655641011E+01 0.  0.
         13    1    3    3    0    0  0.31065196225E+01  0.37227555867E+02 -0.59550526865E+03  0.59667584698E+03  0.00000000000E+00 0.  1.
          3    1    3    3  501    0  0.58400070135E+00  0.35393746888E+01 -0.76258159257E+02  0.76342485441E+02  0.00000000000E+00 0.  1.
         -3    1    1    2    0  502 -0.36905203239E+01 -0.40766930556E+02 -0.32633049047E+03  0.32888774920E+03  0.00000000000E+00 0. -1.
<mgrwt>
<rscale>  1 0.30000000E+03</rscale>
<asrwt>0</asrwt>
<pdfrwt beam="1">  1       21 0.69312205E-02 0.30000000E+03</pdfrwt>
<pdfrwt beam="2">0</pdfrwt>
<totfact> 0.16414848E+04</totfact>
</mgrwt>
</event>
<event>
 6    1  0.1273846E-001  0.3000000E+03  0.7818608E-02  0.1093470E+00
         21   -1    0    0  501  502  0.00000000000E+00  0.00000000000E+00  0.23182193466E+02  0.23182193466E+02  0.00000000000E+00 0. -1.
         13   -1    0    0    0    0 -0.00000000000E+00 -0.00000000000E+00 -0.10000000000E+04  0.10000000000E+04  0.00000000000E+00 0.  1.
    9000005    2    1    2  501    0 -0.98114291256E+01 -0.13761995187E+03 -0.70469613737E+03  0.71808267180E+03  0.32499568774E+01 0.  0.
         13    1    3    3    0    0 -0.31712393473E+01 -0.35155197532E+02 -0.18687450429E+03  0.19017892898E+03  0.00000000000E+00 0.  1.
          3    1    3    3  501    0 -0.66401897783E+01 -0.10246475434E+03 -0.51782163307E+03  0.52790374282E+03  0.00000000000E+00 0.  1.
         -1    1    1    2    0  502  0.98114291256E+01  0.13761995187E+03 -0.27212166917E+03  0.30509952167E+03  0.00000000000E+00 0. -1.
<mgrwt>
<rscale>  1 0.30000000E+03</rscale>
<asrwt>0</asrwt>
<pdfrwt beam="1">  1       21 0.84299063E-01 0.30000000E+03</pdfrwt>
<pdfrwt beam="2">0</pdfrwt>
<totfact> 0.11332240E+02</totfact>
</mgrwt>
</event>
<event>
 6    1  0.1273846E-001  0.3000000E+03  0.7818608E-02  0.1093470E+00
         21   -1    0    0  501  502  0.00000000000E+00  0.00000000000E+00  0.10405614822E+01  0.10405614822E+01  0.00000000000E+00 0. -1.
         13   -1    0    0    0    0 -0.00000000000E+00 -0.00000000000E+00 -0.10000000000E+04  0.10000000000E+04  0.00000000000E+00 0.  1.
    9000005    2    1    2  501    0  0.19098225148E+02 -0.25859463247E+02 -0.52313411174E+03  0.52413051164E+03  0.31686458074E+01 0.  0.
         13    1    3    3    0    0  0.16366172567E+02 -0.20036396223E+02 -0.41928323122E+03  0.42008063126E+03  0.00000000000E+00 0.  1.
          1    1    3    3  501    0  0.27320525803E+01 -0.58230670237E+01 -0.10385088053E+03  0.10404988038E+03  0.00000000000E+00 0.  1.
         -3    1    1    2    0  502 -0.19098225148E+02  0.25859463247E+02 -0.47582532677E+03  0.47691004984E+03  0.00000000000E+00 0. -1.
<mgrwt>
<rscale>  1 0.30000000E+03</rscale>
<asrwt>0</asrwt>
<pdfrwt beam="1">  1       21 0.37838679E-02 0.30000000E+03</pdfrwt>
<pdfrwt beam="2">0</pdfrwt>
<totfact> 0.46164857E+04</totfact>
</mgrwt>
</event>
<event>
 6    1  0.1273846E-001  0.3000000E+03  0.7818608E-02  0.1093470E+00
         21   -1    0    0  501  502  0.00000000000E+00  0.00000000000E+00  0.10602314164E+01  0.10602314164E+01  0.00000000000E+00 0. -1.
         13   -1    0    0    0    0 -0.00000000000E+00 -0.00000000000E+00 -0.10000000000E+04  0.10000000000E+04  0.00000000000E+00 0.  1.
    9000005    2    1    2  501    0 -0.12603051479E+02 -0.28595546573E+02 -0.63824857776E+03  0.63901786190E+03  0.24573601047E+01 0.  0.
         13    1    3    3    0    0 -0.12412418217E+02 -0.26807107735E+02 -0.59853428235E+03  0.59926286077E+03  0.00000000000E+00 0.  1.
          3    1    3    3  501    0 -0.19063326174E+00 -0.17884388380E+01 -0.39714295411E+02  0.39755001125E+02  0.00000000000E+00 0.  1.
         -3    1    1    2    0  502  0.12603051479E+02  0.28595546573E+02 -0.36069119082E+03  0.36204236952E+03  0.00000000000E+00 0. -1.
<mgrwt>
<rscale>  1 0.30000000E+03</rscale>
<asrwt>0</asrwt>
<pdfrwt beam="1">  1       21 0.38553951E-02 0.30000000E+03</pdfrwt>
<pdfrwt beam="2">0</pdfrwt>
<totfact> 0.44734663E+04</totfact>
</mgrwt>
</event>
<event>
 6    1  0.1273846E-001  0.3000000E+03  0.7818608E-02  0.1093470E+00
         21   -1    0    0  501  502  0.00000000000E+00  0.00000000000E+00  0.10740211823E+01  0.10740211823E+01  0.00000000000E+00 0. -1.
         13   -1    0    0    0    0 -0.00000000000E+00 -0.00000000000E+00 -0.10000000000E+04  0.10000000000E+04  0.00000000000E+00 0.  1.
    9000005    2    1    2  501    0  0.15770897785E+02 -0.26784351049E+02 -0.65546068078E+03  0.65620515678E+03  0.32219649353E+01 0.  0.
         13    1    3    3    0    0  0.21037149692E+01 -0.24191553779E+01 -0.52700398711E+02  0.52797821486E+02  0.00000000000E+00 0.  1.
          3    1    3    3  501    0  0.13667182816E+02 -0.24365195671E+02 -0.60276028207E+03  0.60340733529E+03  0.00000000000E+00 0.  1.
         -3    1    1    2    0  502 -0.15770897785E+02  0.26784351049E+02 -0.34346529804E+03  0.34486886440E+03  0.00000000000E+00 0. -1.
<mgrwt>
<rscale>  1 0.30000000E+03</rscale>
<asrwt>0</asrwt>
<pdfrwt beam="1">  1       21 0.39055398E-02 0.30000000E+03</pdfrwt>
<pdfrwt beam="2">0</pdfrwt>
<totfact> 0.43773031E+04</totfact>
</mgrwt>
</event>
<event>
 6    1  0.1273846E-001  0.3000000E+03  0.7818608E-02  0.1093470E+00
         21   -1    0    0  501  502  0.00000000000E+00  0.00000000000E+00  0.97383811078E+00  0.97383811078E+00  0.00000000000E+00 0. -1.
         13   -1    0    0    0    0 -0.00000000000E+00 -0.00000000000E+00 -0.10000000000E+04  0.10000000000E+04  0.00000000000E+00 0.  1.
    9000005    2    1    2  501    0  0.30804345865E+02 -0.16819551720E+01 -0.56595769142E+03  0.56680792880E+03  0.33738657539E+01 0.  0.
         13    1    3    3    0    0  0.23104724832E+02 -0.56538279516E+00 -0.39855951738E+03  0.39922905313E+03  0.00000000000E+00 0.  1.
          3    1    3    3  501    0  0.76996210327E+01 -0.11165723769E+01 -0.16739817404E+03  0.16757887567E+03  0.00000000000E+00 0.  1.
         -1    1    1    2    0  502 -0.30804345865E+02  0.16819551720E+01 -0.43306847047E+03  0.43416590931E+03  0.00000000000E+00 0. -1.
<mgrwt>
<rscale>  1 0.30000000E+03</rscale>
<asrwt>0</asrwt>
<pdfrwt beam="1">  1       21 0.35412370E-02 0.30000000E+03</pdfrwt>
<pdfrwt beam="2">0</pdfrwt>
<totfact> 0.51594437E+04</totfact>
</mgrwt>
</event>
<event>
 6    1  0.1273846E-001  0.3000000E+03  0.7818608E-02  0.1093470E+00
         21   -1    0    0  501  502  0.00000000000E+00  0.00000000000E+00  0.16096689247E+01  0.16096689247E+01  0.00000000000E+00 0. -1.
         13   -1    0    0    0    0 -0.00000000000E+00 -0.00000000000E+00 -0.10000000000E+04  0.10000000000E+04  0.00000000000E+00 0.  1.
    9000005    2    1    2  501    0  0.63379240086E+01  0.32755939469E+02 -0.77682483842E+03  0.77754631095E+03  0.28836148706E+01 0.  0.
         13    1    3    3    0    0  0.41568320537E+01  0.14538985759E+02 -0.33790765730E+03  0.33824583696E+03  0.00000000000E+00 0.  1.
          3    1    3    3  501    0  0.21810919550E+01  0.18216953710E+02 -0.43891718111E+03  0.43930047398E+03  0.00000000000E+00 0.  1.
         -1    1    1    2    0  502 -0.63379240086E+01 -0.32755939469E+02 -0.22156549266E+03  0.22406335798E+03  0.00000000000E+00 0. -1.
<mgrwt>
<rscale>  1 0.30000000E+03</rscale>
<asrwt>0</asrwt>
<pdfrwt beam="1">  1       21 0.58533539E-02 0.30000000E+03</pdfrwt>
<pdfrwt beam="2">0</pdfrwt>
<totfact> 0.21989937E+04</totfact>
</mgrwt>
</event>
<event>
 6    1  0.1273846E-001  0.3000000E+03  0.7818608E-02  0.1093470E+00
         21   -1    0    0  501  502  0.00000000000E+00  0.00000000000E+00  0.22425309412E+01  0.22425309412E+01  0.00000000000E+00 0. -1.
         13   -1    0    0    0    0 -0.00000000000E+00 -0.00000000000E+00 -0.10000000000E+04  0.10000000000E+04  0.00000000000E+00 0.  1.
    9000005    2    1    2  501    0 -0.30300240560E+02 -0.26882840526E+02 -0.75827499154E+03  0.75935850773E+03  0.18944059946E+01 0.  0.
         13    1    3    3    0    0 -0.22691906665E+02 -0.19169825770E+02 -0.56355685307E+03  0.56433919897E+03  0.00000000000E+00 0.  1.
          3    1    3    3  501    0 -0.76083338951E+01 -0.77130147556E+01 -0.19471813847E+03  0.19501930876E+03  0.00000000000E+00 0.  1.
         -3    1    1    2    0  502  0.30300240560E+02  0.26882840526E+02 -0.23948247752E+03  0.24288402321E+03  0.00000000000E+00 0. -1.
<mgrwt>
<rscale>  1 0.30000000E+03</rscale>
<asrwt>0</asrwt>
<pdfrwt beam="1">  1       21 0.81546752E-02 0.30000000E+03</pdfrwt>
<pdfrwt beam="2">0</pdfrwt>
<totfact> 0.12351121E+04</totfact>
</mgrwt>
</event>
<event>
 6    1  0.1273846E-001  0.3000000E+03  0.7818608E-02  0.1093470E+00
         21   -1    0    0  501  502  0.00000000000E+00  0.00000000000E+00  0.11061354113E+01  0.11061354113E+01  0.00000000000E+00 0. -1.
         13   -1    0    0    0    0 -0.00000000000E+00 -0.00000000000E+00 -0.10000000000E+04  0.10000000000E+04  0.00000000000E+00 0.  1.
    9000005    2    1    2  501    0 -0.94455859493E+01  0.28999899391E+02 -0.69685119971E+03  0.69752750529E+03  0.35795029825E+01 0.  0.
         13    1    3    3    0    0 -0.96289474711E+01  0.26404080671E+02 -0.63589877441E+03  0.63651955461E+03  0.00000000000E+00 0.  1.
          1    1    3    3  501    0  0.18336152184E+00  0.25958187206E+01 -0.60952425294E+02  0.61007950674E+02  0.00000000000E+00 0.  1.
         -3    1    1    2    0  502  0.94455859493E+01 -0.28999899391E+02 -0.30204266488E+03  0.30357863012E+03  0.00000000000E+00 0. -1.
<mgrwt>
<rscale>  1 0.30000000E+03</rscale>
<asrwt>0</asrwt>
<pdfrwt beam="1">  1       21 0.40223191E-02 0.30000000E+03</pdfrwt>
<pdfrwt beam="2">0</pdfrwt>
<totfact> 0.41655109E+04</totfact>
</mgrwt>
</event>
<event>
 6    1  0.1273846E-001  0.3000000E+03  0.7818608E-02  0.1093470E+00
         21   -1    0    0  501  502  0.00000000000E+00  0.00000000000E+00  0.11497952218E+02  0.11497952218E+02  0.00000000000E+00 0. -1.
         13   -1    0    0    0    0 -0.00000000000E+00 -0.00000000000E+00 -0.10000000000E+04  0.10000000000E+04  0.00000000000E+00 0.  1.
    9000005    2    1    2  501    0 -0.93628063123E+02  0.48128693273E+02 -0.58971179490E+03  0.59904643857E+03  0.37482255658E+01 0.  0.
         13    1    3    3    0    0 -0.46934196975E+02  0.25830024067E+02 -0.29370218445E+03  0.29854812366E+03  0.00000000000E+00 0.  1.
          1    1    3    3  501    0 -0.46693866148E+02  0.22298669205E+02 -0.29600961045E+03  0.30049831491E+03  0.00000000000E+00 0.  1.
         -1    1    1    2    0  502  0.93628063123E+02 -0.48128693273E+02 -0.39879025288E+03  0.41245151365E+03  0.00000000000E+00 0. -1.
<mgrwt>
<rscale>  1 0.30000000E+03</rscale>
<asrwt>0</asrwt>
<pdfrwt beam="1">  1       21 0.41810824E-01 0.30000000E+03</pdfrwt>
<pdfrwt beam="2">0</pdfrwt>
<totfact> 0.55045686E+02</totfact>
</mgrwt>
</event>
<event>
 6    1  0.1273846E-001  0.3000000E+03  0.7818608E-02  0.1093470E+00
         21   -1    0    0  501  502  0.00000000000E+00  0.00000000000E+00  0.27134855156E+01  0.27134855156E+01  0.00000000000E+00 0. -1.
         13   -1    0    0    0    0 -0.00000000000E+00 -0.00000000000E+00 -0.10000000000E+04  0.10000000000E+04  0.00000000000E+00 0.  1.
    9000005    2    1    2  501    0  0.17914071024E+02 -0.31214024443E+02 -0.86089075738E+03  0.86164955739E+03  0.34401080051E+01 0.  0.
         13    1    3    3    0    0  0.17293666967E+02 -0.30891986521E+02 -0.84947304434E+03  0.85021046736E+03  0.00000000000E+00 0.  1.
          1    1    3    3  501    0  0.62040405669E+00 -0.32203792236E+00 -0.11417713038E+02  0.11439090027E+02  0.00000000000E+00 0.  1.
         -3    1    1    2    0  502 -0.17914071024E+02  0.31214024443E+02 -0.13639575710E+03  0.14106392813E+03  0.00000000000E+00 0. -1.
<mgrwt>
<rscale>  1 0.30000000E+03</rscale>
<asrwt>0</asrwt>
<pdfrwt beam="1">  1       21 0.98672409E-02 0.30000000E+03</pdfrwt>
<pdfrwt beam="2">0</pdfrwt>
<totfact> 0.88110391E+03</totfact>
</mgrwt>
</event>
<event>
 6    1  0.1273846E-001  0.3000000E+03  0.7818608E-02  0.1093470E+00
         21   -1    0    0  501  502  0.00000000000E+00  0.00000000000E+00  0.13429061549E+01  0.13429061549E+01  0.00000000000E+00 0. -1.
         13   -1    0    0    0    0 -0.00000000000E+00 -0.00000000000E+00 -0.10000000000E+04  0.10000000000E+04  0.00000000000E+00 0.  1.
    9000005    2    1    2  501    0 -0.22459120220E+02 -0.27101271479E+02 -0.63690972333E+03  0.63788719899E+03  0.26817839116E+01 0.  0.
         13    1    3    3    0    0 -0.16553831475E+02 -0.21706782324E+02 -0.49603057708E+03  0.49678118638E+03  0.00000000000E+00 0.  1.
          1    1    3    3  501    0 -0.59052887452E+01 -0.53944891550E+01 -0.14087914625E+03  0.14110601261E+03  0.00000000000E+00 0.  1.
         -3    1    1    2    0  502  0.22459120220E+02  0.27101271479E+02 -0.36174737052E+03  0.36345570717E+03  0.00000000000E+00 0. -1.
<mgrwt>
<rscale>  1 0.30000000E+03</rscale>
<asrwt>0</asrwt>
<pdfrwt beam="1">  1       21 0.48833054E-02 0.30000000E+03</pdfrwt>
<pdfrwt beam="2">0</pdfrwt>
<totfact> 0.29987255E+04</totfact>
</mgrwt>
</event>
<event>
 6    1  0.1273846E-001  0.3000000E+03  0.7818608E-02  0.1093470E+00
         21   -1    0    0  501  502  0.00000000000E+00  0.00000000000E+00  0.19389476255E+01  0.19389476255E+01  0.00000000000E+00 0. -1.
         13   -1    0    0    0    0 -0.00000000000E+00 -0.00000000000E+00 -0.10000000000E+04  0.10000000000E+04  0.00000000000E+00 0.  1.
    9000005    2    1    2  501    0 -0.15041979582E+01 -0.42183303014E+02 -0.63957542820E+03  0.64097684933E+03  0.35915675700E+01 0.  0.
         13    1    3    3    0    0  0.16873445865E+00 -0.20187847714E+02 -0.28212045878E+03  0.28284188327E+03  0.00000000000E+00 0.  1.
          3    1    3    3  501    0 -0.16729324169E+01 -0.21995455300E+02 -0.35745496942E+03  0.35813496606E+03  0.00000000000E+00 0.  1.
         -1    1    1    2    0  502  0.15041979582E+01  0.42183303014E+02 -0.35848562418E+03  0.36096209830E+03  0.00000000000E+00 0. -1.
<mgrwt>
<rscale>  1 0.30000000E+03</rscale>
<asrwt>0</asrwt>
<pdfrwt beam="1">  1       21 0.70507335E-02 0.30000000E+03</pdfrwt>
<pdfrwt beam="2">0</pdfrwt>
<totfact> 0.15933711E+04</totfact>
</mgrwt>
</event>
<event>
 6    1  0.1273846E-001  0.3000000E+03  0.7818608E-02  0.1093470E+00
         21   -1    0    0  501  502  0.00000000000E+00  0.00000000000E+00  0.13520569219E+02  0.13520569219E+02  0.00000000000E+00 0. -1.
         13   -1    0    0    0    0 -0.00000000000E+00 -0.00000000000E+00 -0.10000000000E+04  0.10000000000E+04  0.00000000000E+00 0.  1.
    9000005    2    1    2  501    0  0.72017714406E+02 -0.13045922178E+02 -0.88698529158E+03  0.89000607205E+03  0.33396926889E+01 0.  0.
         13    1    3    3    0    0  0.32239654705E+02 -0.42004516648E+01 -0.38893041516E+03  0.39028695464E+03  0.00000000000E+00 0.  1.
          1    1    3    3  501    0  0.39778059701E+02 -0.88454705129E+01 -0.49805487642E+03  0.49971911741E+03  0.00000000000E+00 0.  1.
         -1    1    1    2    0  502 -0.72017714406E+02  0.13045922178E+02 -0.99494139205E+02  0.12351449716E+03  0.00000000000E+00 0. -1.
<mgrwt>
<rscale>  1 0.30000000E+03</rscale>
<asrwt>0</asrwt>
<pdfrwt beam="1">  1       21 0.49165810E-01 0.30000000E+03</pdfrwt>
<pdfrwt beam="2">0</pdfrwt>
<totfact> 0.38965796E+02</totfact>
</mgrwt>
</event>
<event>
 6    1  0.1273846E-001  0.3000000E+03  0.7818608E-02  0.1093470E+00
         21   -1    0    0  501  502  0.00000000000E+00  0.00000000000E+00  0.13093764075E+01  0.13093764075E+01  0.00000000000E+00 0. -1.
         13   -1    0    0    0    0 -0.00000000000E+00 -0.00000000000E+00 -0.10000000000E+04  0.10000000000E+04  0.00000000000E+00 0.  1.
    9000005    2    1    2  501    0  0.14669956856E+02  0.32304172839E+02 -0.40746112469E+03  0.40901630065E+03  0.33164510117E+01 0.  0.
         13    1    3    3    0    0  0.14233465420E+02  0.31210162697E+02 -0.38531501966E+03  0.38683889434E+03  0.00000000000E+00 0.  1.
          1    1    3    3  501    0  0.43649143546E+00  0.10940101426E+01 -0.22146105022E+02  0.22177406309E+02  0.00000000000E+00 0.  1.
         -1    1    1    2    0  502 -0.14669956856E+02 -0.32304172839E+02 -0.59122949891E+03  0.59229307576E+03  0.00000000000E+00 0. -1.
<mgrwt>
<rscale>  1 0.30000000E+03</rscale>
<asrwt>0</asrwt>
<pdfrwt beam="1">  1       21 0.47613788E-02 0.30000000E+03</pdfrwt>
<pdfrwt beam="2">0</pdfrwt>
<totfact> 0.31305879E+04</totfact>
</mgrwt>
</event>
<event>
 6    1  0.1273846E-001  0.3000000E+03  0.7818608E-02  0.1093470E+00
         21   -1    0    0  501  502  0.00000000000E+00  0.00000000000E+00  0.11475255177E+01  0.11475255177E+01  0.00000000000E+00 0. -1.
         13   -1    0    0    0    0 -0.00000000000E+00 -0.00000000000E+00 -0.10000000000E+04  0.10000000000E+04  0.00000000000E+00 0.  1.
    9000005    2    1    2  501    0  0.29141745484E+02  0.89923557130E+01 -0.71375771191E+03  0.71442618443E+03  0.49596261440E+01 0.  0.
         13    1    3    3    0    0  0.58783110221E+01  0.39643381738E+01 -0.17052953816E+03  0.17067686985E+03  0.00000000000E+00 0.  1.
          1    1    3    3  501    0  0.23263434462E+02  0.50280175392E+01 -0.54322817375E+03  0.54374931457E+03  0.00000000000E+00 0.  1.
         -1    1    1    2    0  502 -0.29141745484E+02 -0.89923557130E+01 -0.28509476257E+03  0.28672134109E+03  0.00000000000E+00 0. -1.
<mgrwt>
<rscale>  1 0.30000000E+03</rscale>
<asrwt>0</asrwt>
<pdfrwt beam="1">  1       21 0.41728289E-02 0.30000000E+03</pdfrwt>
<pdfrwt beam="2">0</pdfrwt>
<totfact> 0.39153142E+04</totfact>
</mgrwt>
</event>
<event>
 6    1  0.1273846E-001  0.3000000E+03  0.7818608E-02  0.1093470E+00
         21   -1    0    0  501  502  0.00000000000E+00  0.00000000000E+00  0.12053253953E+01  0.12053253953E+01  0.00000000000E+00 0. -1.
         13   -1    0    0    0    0 -0.00000000000E+00 -0.00000000000E+00 -0.10000000000E+04  0.10000000000E+04  0.00000000000E+00 0.  1.
    9000005    2    1    2  501    0  0.14740563024E+02  0.26826562343E+02 -0.73500101457E+03  0.73564169137E+03  0.22930348161E+01 0.  0.
         13    1    3    3    0    0  0.45197822646E+01  0.10505702077E+02 -0.27751674822E+03  0.27775230647E+03  0.00000000000E+00 0.  1.
          3    1    3    3  501    0  0.10220780759E+02  0.16320860266E+02 -0.45748426635E+03  0.45788938489E+03  0.00000000000E+00 0.  1.
         -1    1    1    2    0  502 -0.14740563024E+02 -0.26826562343E+02 -0.26379366003E+03  0.26556363403E+03  0.00000000000E+00 0. -1.
<mgrwt>
<rscale>  1 0.30000000E+03</rscale>
<asrwt>0</asrwt>
<pdfrwt beam="1">  1       21 0.43830107E-02 0.30000000E+03</pdfrwt>
<pdfrwt beam="2">0</pdfrwt>
<totfact> 0.36031730E+04</totfact>
</mgrwt>
</event>
<event>
 6    1  0.1273846E-001  0.3000000E+03  0.7818608E-02  0.1093470E+00
         21   -1    0    0  501  502  0.00000000000E+00  0.00000000000E+00  0.10156518596E+01  0.10156518596E+01  0.00000000000E+00 0. -1.
         13   -1    0    0    0    0 -0.00000000000E+00 -0.00000000000E+00 -0.10000000000E+04  0.10000000000E+04  0.00000000000E+00 0.  1.
    9000005    2    1    2  501    0 -0.22424974643E+02 -0.20586816404E+02 -0.64405714344E+03  0.64478536520E+03  0.34448021879E+01 0.  0.
         13    1    3    3    0    0 -0.21870516142E+02 -0.20085873445E+02 -0.63624524833E+03  0.63693781314E+03  0.00000000000E+00 0.  1.
          3    1    3    3  501    0 -0.55445850121E+00 -0.50094295931E+00 -0.78118951061E+01  0.78475520532E+01  0.00000000000E+00 0.  1.
         -1    1    1    2    0  502  0.22424974643E+02  0.20586816404E+02 -0.35492720470E+03  0.35623028666E+03  0.00000000000E+00 0. -1.
<mgrwt>
<rscale>  1 0.30000000E+03</rscale>
<asrwt>0</asrwt>
<pdfrwt beam="1">  1       21 0.36932873E-02 0.30000000E+03</pdfrwt>
<pdfrwt beam="2">0</pdfrwt>
<totfact> 0.48081759E+04</totfact>
</mgrwt>
</event>
<event>
 6    1  0.1273846E-001  0.3000000E+03  0.7818608E-02  0.1093470E+00
         21   -1    0    0  501  502  0.00000000000E+00  0.00000000000E+00  0.20147285724E+01  0.20147285724E+01  0.00000000000E+00 0. -1.
         13   -1    0    0    0    0 -0.00000000000E+00 -0.00000000000E+00 -0.10000000000E+04  0.10000000000E+04  0.00000000000E+00 0.  1.
    9000005    2    1    2  501    0 -0.17492545587E+02  0.24932218739E+02 -0.86676911686E+03  0.86731029694E+03  0.32931065567E+01 0.  0.
         13    1    3    3    0    0 -0.52537947896E+01  0.65601656118E+01 -0.20207336441E+03  0.20224807227E+03  0.00000000000E+00 0.  1.
          1    1    3    3  501    0 -0.12238750797E+02  0.18372053127E+02 -0.66469575245E+03  0.66506222467E+03  0.00000000000E+00 0.  1.
         -3    1    1    2    0  502  0.17492545587E+02 -0.24932218739E+02 -0.13121615457E+03  0.13470443164E+03  0.00000000000E+00 0. -1.
<mgrwt>
<rscale>  1 0.30000000E+03</rscale>
<asrwt>0</asrwt>
<pdfrwt beam="1">  1       21 0.73263012E-02 0.30000000E+03</pdfrwt>
<pdfrwt beam="2">0</pdfrwt>
<totfact> 0.14902999E+04</totfact>
</mgrwt>
</event>
<event>
 6    1  0.1273846E-001  0.3000000E+03  0.7818608E-02  0.1093470E+00
         21   -1    0    0  501  502  0.00000000000E+00  0.00000000000E+00  0.11271417813E+01  0.11271417813E+01  0.00000000000E+00 0. -1.
         13   -1    0    0    0    0 -0.00000000000E+00 -0.00000000000E+00 -0.10000000000E+04  0.10000000000E+04  0.00000000000E+00 0.  1.
    9000005    2    1    2  501    0  0.10844395450E+02  0.30321869611E+02 -0.63672268625E+03  0.63754803932E+03  0.38349141230E+01 0.  0.
         13    1    3    3    0    0  0.17873263758E+01  0.21446802282E+01 -0.46488518272E+02  0.46572272008E+02  0.00000000000E+00 0.  1.
          1    1    3    3  501    0  0.90570690739E+01  0.28177189383E+02 -0.59023416798E+03  0.59097576731E+03  0.00000000000E+00 0.  1.
         -3    1    1    2    0  502 -0.10844395450E+02 -0.30321869611E+02 -0.36215017197E+03  0.36357910246E+03  0.00000000000E+00 0. -1.
<mgrwt>
<rscale>  1 0.30000000E+03</rscale>
<asrwt>0</asrwt>
<pdfrwt beam="1">  1       21 0.40987060E-02 0.30000000E+03</pdfrwt>
<pdfrwt beam="2">0</pdfrwt>
<totfact> 0.40355110E+04</totfact>
</mgrwt>
</event>
<event>
 6    1  0.1273846E-001  0.3000000E+03  0.7818608E-02  0.1093470E+00
         21   -1    0    0  501  502  0.00000000000E+00  0.00000000000E+00  0.11785215467E+01  0.11785215467E+01  0.00000000000E+00 0. -1.
         13   -1    0    0    0    0 -0.00000000000E+00 -0.00000000000E+00 -0.10000000000E+04  0.10000000000E+04  0.00000000000E+00 0.  1.
    9000005    2    1    2  501    0  0.30126640904E+02  0.11929608409E+02 -0.63900167281E+03  0.63990269537E+03  0.10118875168E+02 0.  0.
         13    1    3    3    0    0 -0.57818126512E+00 -0.37641569529E+00 -0.64753523072E+01  0.65120019851E+01  0.00000000000E+00 0.  1.
          1    1    3    3  501    0  0.30704822169E+02  0.12306024104E+02 -0.63252632050E+03  0.63339069338E+03  0.00000000000E+00 0.  1.
         -1    1    1    2    0  502 -0.30126640904E+02 -0.11929608409E+02 -0.35981980564E+03  0.36127582618E+03  0.00000000000E+00 0. -1.
<mgrwt>
<rscale>  1 0.30000000E+03</rscale>
<asrwt>0</asrwt>
<pdfrwt beam="1">  1       21 0.42855419E-02 0.30000000E+03</pdfrwt>
<pdfrwt beam="2">0</pdfrwt>
<totfact> 0.37429311E+04</totfact>
</mgrwt>
</event>
<event>
 6    1  0.1273846E-001  0.3000000E+03  0.7818608E-02  0.1093470E+00
         21   -1    0    0  501  502  0.00000000000E+00  0.00000000000E+00  0.10152119301E+01  0.10152119301E+01  0.00000000000E+00 0. -1.
         13   -1    0    0    0    0 -0.00000000000E+00 -0.00000000000E+00 -0.10000000000E+04  0.10000000000E+04  0.00000000000E+00 0.  1.
    9000005    2    1    2  501    0  0.27864380344E+02 -0.15048526204E+02 -0.45780918307E+03  0.45891382171E+03  0.31250310779E+01 0.  0.
         13    1    3    3    0    0  0.13234054411E+02 -0.60258798946E+01 -0.22728752641E+03  0.22775221423E+03  0.00000000000E+00 0.  1.
          1    1    3    3  501    0  0.14630325932E+02 -0.90226463092E+01 -0.23052165667E+03  0.23116160749E+03  0.00000000000E+00 0.  1.
         -1    1    1    2    0  502 -0.27864380344E+02  0.15048526204E+02 -0.54117560500E+03  0.54210139022E+03  0.00000000000E+00 0. -1.
<mgrwt>
<rscale>  1 0.30000000E+03</rscale>
<asrwt>0</asrwt>
<pdfrwt beam="1">  1       21 0.36916875E-02 0.30000000E+03</pdfrwt>
<pdfrwt beam="2">0</pdfrwt>
<totfact> 0.48116734E+04</totfact>
</mgrwt>
</event>
<event>
 6    1  0.1273846E-001  0.3000000E+03  0.7818608E-02  0.1093470E+00
         21   -1    0    0  501  502  0.00000000000E+00  0.00000000000E+00  0.19938676018E+01  0.19938676018E+01  0.00000000000E+00 0. -1.
         13   -1    0    0    0    0 -0.00000000000E+00 -0.00000000000E+00 -0.10000000000E+04  0.10000000000E+04  0.00000000000E+00 0.  1.
    9000005    2    1    2  501    0  0.14980690139E+02  0.36909054016E+02 -0.27613716355E+03  0.27902671238E+03  0.41801653169E+01 0.  0.
         13    1    3    3    0    0  0.42882832249E+01  0.13809659374E+02 -0.11142375145E+03  0.11235812589E+03  0.00000000000E+00 0.  1.
          1    1    3    3  501    0  0.10692406914E+02  0.23099394642E+02 -0.16471341210E+03  0.16666858650E+03  0.00000000000E+00 0.  1.
         -1    1    1    2    0  502 -0.14980690139E+02 -0.36909054016E+02 -0.72186896885E+03  0.72296715522E+03  0.00000000000E+00 0. -1.
<mgrwt>
<rscale>  1 0.30000000E+03</rscale>
<asrwt>0</asrwt>
<pdfrwt beam="1">  1       21 0.72504429E-02 0.30000000E+03</pdfrwt>
<pdfrwt beam="2">0</pdfrwt>
<totfact> 0.15176383E+04</totfact>
</mgrwt>
</event>
<event>
 6    1  0.1273846E-001  0.3000000E+03  0.7818608E-02  0.1093470E+00
         21   -1    0    0  501  502  0.00000000000E+00  0.00000000000E+00  0.30170940187E+01  0.30170940187E+01  0.00000000000E+00 0. -1.
         13   -1    0    0    0    0 -0.00000000000E+00 -0.00000000000E+00 -0.10000000000E+04  0.10000000000E+04  0.00000000000E+00 0.  1.
    9000005    2    1    2  501    0  0.23437896398E+02  0.38010212978E+02 -0.79018462719E+03  0.79145235359E+03  0.33123542097E+01 0.  0.
         13    1    3    3    0    0  0.22670430393E+02  0.37280635545E+02 -0.77763552102E+03  0.77885865069E+03  0.00000000000E+00 0.  1.
          1    1    3    3  501    0  0.76746600574E+00  0.72957743314E+00 -0.12549106164E+02  0.12593702903E+02  0.00000000000E+00 0.  1.
         -1    1    1    2    0  502 -0.23437896398E+02 -0.38010212978E+02 -0.20679827880E+03  0.21156474042E+03  0.00000000000E+00 0. -1.
<mgrwt>
<rscale>  1 0.30000000E+03</rscale>
<asrwt>0</asrwt>
<pdfrwt beam="1">  1       21 0.10971274E-01 0.30000000E+03</pdfrwt>
<pdfrwt beam="2">0</pdfrwt>
<totfact> 0.72862163E+03</totfact>
</mgrwt>
</event>
<event>
 6    1  0.1273846E-001  0.3000000E+03  0.7818608E-02  0.1093470E+00
         21   -1    0    0  501  502  0.00000000000E+00  0.00000000000E+00  0.85834681805E+01  0.85834681805E+01  0.00000000000E+00 0. -1.
         13   -1    0    0    0    0 -0.00000000000E+00 -0.00000000000E+00 -0.10000000000E+04  0.10000000000E+04  0.00000000000E+00 0.  1.
    9000005    2    1    2  501    0 -0.36642115749E+02  0.22104314705E+02 -0.94295854622E+03  0.94393502084E+03  0.33553394784E+01 0.  0.
         13    1    3    3    0    0 -0.74168339776E+01  0.31427575540E+01 -0.16337028499E+03  0.16356875120E+03  0.00000000000E+00 0.  1.
          3    1    3    3  501    0 -0.29225281772E+02  0.18961557151E+02 -0.77958826123E+03  0.78036626964E+03  0.00000000000E+00 0.  1.
         -1    1    1    2    0  502  0.36642115749E+02 -0.22104314705E+02 -0.48457985598E+02  0.64648447339E+02  0.00000000000E+00 0. -1.
<mgrwt>
<rscale>  1 0.30000000E+03</rscale>
<asrwt>0</asrwt>
<pdfrwt beam="1">  1       21 0.31212677E-01 0.30000000E+03</pdfrwt>
<pdfrwt beam="2">0</pdfrwt>
<totfact> 0.10041776E+03</totfact>
</mgrwt>
</event>
<event>
 6    1  0.1273846E-001  0.3000000E+03  0.7818608E-02  0.1093470E+00
         21   -1    0    0  501  502  0.00000000000E+00  0.00000000000E+00  0.24592874200E+01  0.24592874200E+01  0.00000000000E+00 0. -1.
         13   -1    0    0    0    0 -0.00000000000E+00 -0.00000000000E+00 -0.10000000000E+04  0.10000000000E+04  0.00000000000E+00 0.  1.
    9000005    2    1    2  501    0  0.25523784486E+02  0.19162728600E+02 -0.88208819369E+03  0.88267632594E+03  0.43864784349E+01 0.  0.
         13    1    3    3    0    0  0.20116457749E+02  0.12704686212E+02 -0.65495083178E+03  0.65538284459E+03  0.00000000000E+00 0.  1.
          3    1    3    3  501    0  0.54073267367E+01  0.64580423876E+01 -0.22713736191E+03  0.22729348136E+03  0.00000000000E+00 0.  1.
         -3    1    1    2    0  502 -0.25523784486E+02 -0.19162728600E+02 -0.11545251889E+03  0.11978296148E+03  0.00000000000E+00 0. -1.
<mgrwt>
<rscale>  1 0.30000000E+03</rscale>
<asrwt>0</asrwt>
<pdfrwt beam="1">  1       21 0.89428822E-02 0.30000000E+03</pdfrwt>
<pdfrwt beam="2">0</pdfrwt>
<totfact> 0.10495778E+04</totfact>
</mgrwt>
</event>
<event>
 6    1  0.1273846E-001  0.3000000E+03  0.7818608E-02  0.1093470E+00
         21   -1    0    0  501  502  0.00000000000E+00  0.00000000000E+00  0.12393454470E+02  0.12393454470E+02  0.00000000000E+00 0. -1.
         13   -1    0    0    0    0 -0.00000000000E+00 -0.00000000000E+00 -0.10000000000E+04  0.10000000000E+04  0.00000000000E+00 0.  1.
    9000005    2    1    2  501    0 -0.11637479871E+02 -0.49665078124E+02 -0.94369392791E+03  0.94508543928E+03  0.51192809847E+01 0.  0.
         13    1    3    3    0    0 -0.11915814614E+02 -0.43805537412E+02 -0.83898335817E+03  0.84021068015E+03  0.00000000000E+00 0.  1.
          3    1    3    3  501    0  0.27833474223E+00 -0.58595407125E+01 -0.10471056974E+03  0.10487475913E+03  0.00000000000E+00 0.  1.
         -1    1    1    2    0  502  0.11637479871E+02  0.49665078124E+02 -0.43912617619E+02  0.67308015191E+02  0.00000000000E+00 0. -1.
<mgrwt>
<rscale>  1 0.30000000E+03</rscale>
<asrwt>0</asrwt>
<pdfrwt beam="1">  1       21 0.45067202E-01 0.30000000E+03</pdfrwt>
<pdfrwt beam="2">0</pdfrwt>
<totfact> 0.46959872E+02</totfact>
</mgrwt>
</event>
<event>
 6    1  0.1273846E-001  0.3000000E+03  0.7818608E-02  0.1093470E+00
         21   -1    0    0  501  502  0.00000000000E+00  0.00000000000E+00  0.15480269037E+01  0.15480269037E+01  0.00000000000E+00 0. -1.
         13   -1    0    0    0    0 -0.00000000000E+00 -0.00000000000E+00 -0.10000000000E+04  0.10000000000E+04  0.00000000000E+00 0.  1.
    9000005    2    1    2  501    0 -0.34048108238E+02 -0.18171455378E+02 -0.59099131542E+03  0.59226369662E+03  0.40094840170E+01 0.  0.
         13    1    3    3    0    0 -0.28388353197E+02 -0.15006225664E+02 -0.46672015615E+03  0.46782345982E+03  0.00000000000E+00 0.  1.
          3    1    3    3  501    0 -0.56597550418E+01 -0.31652297135E+01 -0.12427115928E+03  0.12444023680E+03  0.00000000000E+00 0.  1.
         -1    1    1    2    0  502  0.34048108238E+02  0.18171455378E+02 -0.40746065767E+03  0.40928433028E+03  0.00000000000E+00 0. -1.
<mgrwt>
<rscale>  1 0.30000000E+03</rscale>
<asrwt>0</asrwt>
<pdfrwt beam="1">  1       21 0.56292006E-02 0.30000000E+03</pdfrwt>
<pdfrwt beam="2">0</pdfrwt>
<totfact> 0.23518059E+04</totfact>
</mgrwt>
</event>
<event>
 6    1  0.1273846E-001  0.3000000E+03  0.7818608E-02  0.1093470E+00
         21   -1    0    0  501  502  0.00000000000E+00  0.00000000000E+00  0.10041584663E+01  0.10041584663E+01  0.00000000000E+00 0. -1.
         13   -1    0    0    0    0 -0.00000000000E+00 -0.00000000000E+00 -0.10000000000E+04  0.10000000000E+04  0.00000000000E+00 0.  1.
    9000005    2    1    2  501    0  0.87821031536E+00  0.31536634227E+02 -0.52823247026E+03  0.52918482622E+03  0.34215652846E+01 0.  0.
         13    1    3    3    0    0  0.91142188854E+00  0.28458716804E+02 -0.49125129849E+03  0.49207577417E+03  0.00000000000E+00 0.  1.
          3    1    3    3  501    0 -0.33211573175E-01  0.30779174231E+01 -0.36981171769E+02  0.37109052050E+02  0.00000000000E+00 0.  1.
         -1    1    1    2    0  502 -0.87821031536E+00 -0.31536634227E+02 -0.47076337127E+03  0.47181933225E+03  0.00000000000E+00 0. -1.
<mgrwt>
<rscale>  1 0.30000000E+03</rscale>
<asrwt>0</asrwt>
<pdfrwt beam="1">  1       21 0.36514930E-02 0.30000000E+03</pdfrwt>
<pdfrwt beam="2">0</pdfrwt>
<totfact> 0.49008814E+04</totfact>
</mgrwt>
</event>
<event>
 6    1  0.1273846E-001  0.3000000E+03  0.7818608E-02  0.1093470E+00
         21   -1    0    0  501  502  0.00000000000E+00  0.00000000000E+00  0.42081885183E+01  0.42081885183E+01  0.00000000000E+00 0. -1.
         13   -1    0    0    0    0 -0.00000000000E+00 -0.00000000000E+00 -0.10000000000E+04  0.10000000000E+04  0.00000000000E+00 0.  1.
    9000005    2    1    2  501    0 -0.40115388043E+02 -0.31639871104E+02 -0.80589140067E+03  0.80755496117E+03  0.85871898792E+01 0.  0.
         13    1    3    3    0    0 -0.93358573220E+01 -0.87314314912E+01 -0.26217605888E+03  0.26248748918E+03  0.00000000000E+00 0.  1.
          1    1    3    3  501    0 -0.30779530721E+02 -0.22908439613E+02 -0.54371534179E+03  0.54506747199E+03  0.00000000000E+00 0.  1.
         -3    1    1    2    0  502  0.40115388043E+02  0.31639871104E+02 -0.18990041081E+03  0.19665322735E+03  0.00000000000E+00 0. -1.
<mgrwt>
<rscale>  1 0.30000000E+03</rscale>
<asrwt>0</asrwt>
<pdfrwt beam="1">  1       21 0.15302536E-01 0.30000000E+03</pdfrwt>
<pdfrwt beam="2">0</pdfrwt>
<totfact> 0.39684353E+03</totfact>
</mgrwt>
</event>
<event>
 6    1  0.1273846E-001  0.3000000E+03  0.7818608E-02  0.1093470E+00
         21   -1    0    0  501  502  0.00000000000E+00  0.00000000000E+00  0.37285521105E+01  0.37285521105E+01  0.00000000000E+00 0. -1.
         13   -1    0    0    0    0 -0.00000000000E+00 -0.00000000000E+00 -0.10000000000E+04  0.10000000000E+04  0.00000000000E+00 0.  1.
    9000005    2    1    2  501    0 -0.11071272245E+02 -0.38163034865E+02 -0.87824552362E+03  0.87919297848E+03  0.92791893410E+01 0.  0.
         13    1    3    3    0    0 -0.99378519613E+01 -0.32740020401E+02 -0.66925659454E+03  0.67013062844E+03  0.00000000000E+00 0.  1.
          3    1    3    3  501    0 -0.11334202841E+01 -0.54230144636E+01 -0.20898892908E+03  0.20906235004E+03  0.00000000000E+00 0.  1.
         -3    1    1    2    0  502  0.11071272245E+02  0.38163034865E+02 -0.11802592427E+03  0.12453557363E+03  0.00000000000E+00 0. -1.
<mgrwt>
<rscale>  1 0.30000000E+03</rscale>
<asrwt>0</asrwt>
<pdfrwt beam="1">  1       21 0.13558400E-01 0.30000000E+03</pdfrwt>
<pdfrwt beam="2">0</pdfrwt>
<totfact> 0.49599274E+03</totfact>
</mgrwt>
</event>
<event>
 6    1  0.1273846E-001  0.3000000E+03  0.7818608E-02  0.1093470E+00
         21   -1    0    0  501  502  0.00000000000E+00  0.00000000000E+00  0.13159990835E+01  0.13159990835E+01  0.00000000000E+00 0. -1.
         13   -1    0    0    0    0 -0.00000000000E+00 -0.00000000000E+00 -0.10000000000E+04  0.10000000000E+04  0.00000000000E+00 0.  1.
    9000005    2    1    2  501    0 -0.18996874948E+02 -0.29947804054E+02 -0.39996750334E+03  0.40155004748E+03  0.32687432510E+01 0.  0.
         13    1    3    3    0    0 -0.98294840413E+01 -0.18374929694E+02 -0.22886311137E+03  0.22980987912E+03  0.00000000000E+00 0.  1.
          3    1    3    3  501    0 -0.91673909067E+01 -0.11572874360E+02 -0.17110439197E+03  0.17174016836E+03  0.00000000000E+00 0.  1.
         -1    1    1    2    0  502  0.18996874948E+02  0.29947804054E+02 -0.59871649758E+03  0.59976595160E+03  0.00000000000E+00 0. -1.
<mgrwt>
<rscale>  1 0.30000000E+03</rscale>
<asrwt>0</asrwt>
<pdfrwt beam="1">  1       21 0.47854613E-02 0.30000000E+03</pdfrwt>
<pdfrwt beam="2">0</pdfrwt>
<totfact> 0.31038333E+04</totfact>
</mgrwt>
</event>
<event>
 6    1  0.1273846E-001  0.3000000E+03  0.7818608E-02  0.1093470E+00
         21   -1    0    0  501  502  0.00000000000E+00  0.00000000000E+00  0.22102755661E+01  0.22102755661E+01  0.00000000000E+00 0. -1.
         13   -1    0    0    0    0 -0.00000000000E+00 -0.00000000000E+00 -0.10000000000E+04  0.10000000000E+04  0.00000000000E+00 0.  1.
    9000005    2    1    2  501    0 -0.45716729220E+02  0.18644002529E+01 -0.61229849483E+03  0.61401318204E+03  0.30406630065E+01 0.  0.
         13    1    3    3    0    0 -0.42890109577E+02  0.21902334871E+01 -0.58138461862E+03  0.58296863843E+03  0.00000000000E+00 0.  1.
          1    1    3    3  501    0 -0.28266196436E+01 -0.32583323413E+00 -0.30913876206E+02  0.31044543611E+02  0.00000000000E+00 0.  1.
         -3    1    1    2    0  502  0.45716729220E+02 -0.18644002529E+01 -0.38549122961E+03  0.38819709353E+03  0.00000000000E+00 0. -1.
<mgrwt>
<rscale>  1 0.30000000E+03</rscale>
<asrwt>0</asrwt>
<pdfrwt beam="1">  1       21 0.80373826E-02 0.30000000E+03</pdfrwt>
<pdfrwt beam="2">0</pdfrwt>
<totfact> 0.12669683E+04</totfact>
</mgrwt>
</event>
<event>
 6    1  0.1273846E-001  0.3000000E+03  0.7818608E-02  0.1093470E+00
         21   -1    0    0  501  502  0.00000000000E+00  0.00000000000E+00  0.10449407444E+01  0.10449407444E+01  0.00000000000E+00 0. -1.
         13   -1    0    0    0    0 -0.00000000000E+00 -0.00000000000E+00 -0.10000000000E+04  0.10000000000E+04  0.00000000000E+00 0.  1.
    9000005    2    1    2  501    0 -0.31333556605E+01  0.31972416680E+02 -0.47848021125E+03  0.47957958163E+03  0.46053464559E+01 0.  0.
         13    1    3    3    0    0 -0.42560853608E+01  0.26267731157E+02 -0.38454327538E+03  0.38546288875E+03  0.00000000000E+00 0.  1.
          3    1    3    3  501    0  0.11227297004E+01  0.57046855229E+01 -0.93936935862E+02  0.94116692877E+02  0.00000000000E+00 0.  1.
         -1    1    1    2    0  502  0.31333556605E+01 -0.31972416680E+02 -0.52047484801E+03  0.52146535912E+03  0.00000000000E+00 0. -1.
<mgrwt>
<rscale>  1 0.30000000E+03</rscale>
<asrwt>0</asrwt>
<pdfrwt beam="1">  1       21 0.37997925E-02 0.30000000E+03</pdfrwt>
<pdfrwt beam="2">0</pdfrwt>
<totfact> 0.45840286E+04</totfact>
</mgrwt>
</event>
<event>
 6    1  0.1273846E-001  0.3000000E+03  0.7818608E-02  0.1093470E+00
         21   -1    0    0  501  502  0.00000000000E+00  0.00000000000E+00  0.66420603883E+01  0.66420603883E+01  0.00000000000E+00 0. -1.
         13   -1    0    0    0    0 -0.00000000000E+00 -0.00000000000E+00 -0.10000000000E+04  0.10000000000E+04  0.00000000000E+00 0.  1.
    9000005    2    1    2  501    0 -0.74522868378E+02  0.14834942178E+02 -0.31554953896E+03  0.32458783863E+03  0.34669914163E+01 0.  0.
         13    1    3    3    0    0 -0.23314065562E+02  0.53334430743E+01 -0.10563113977E+03  0.10830479656E+03  0.00000000000E+00 0.  1.
          3    1    3    3  501    0 -0.51208802817E+02  0.95014991039E+01 -0.20991839919E+03  0.21628304207E+03  0.00000000000E+00 0.  1.
         -1    1    1    2    0  502  0.74522868378E+02 -0.14834942178E+02 -0.67780840065E+03  0.68205422175E+03  0.00000000000E+00 0. -1.
<mgrwt>
<rscale>  1 0.30000000E+03</rscale>
<asrwt>0</asrwt>
<pdfrwt beam="1">  1       21 0.24152998E-01 0.30000000E+03</pdfrwt>
<pdfrwt beam="2">0</pdfrwt>
<totfact> 0.16681469E+03</totfact>
</mgrwt>
</event>
<event>
 6    1  0.1273846E-001  0.3000000E+03  0.7818608E-02  0.1093470E+00
         21   -1    0    0  501  502  0.00000000000E+00  0.00000000000E+00  0.13663284312E+01  0.13663284312E+01  0.00000000000E+00 0. -1.
         13   -1    0    0    0    0 -0.00000000000E+00 -0.00000000000E+00 -0.10000000000E+04  0.10000000000E+04  0.00000000000E+00 0.  1.
    9000005    2    1    2  501    0  0.33118993694E+02  0.97816368924E+01 -0.32680994337E+03  0.32865564029E+03  0.41524267329E+01 0.  0.
         13    1    3    3    0    0  0.79433967346E+01  0.62052910548E+00 -0.69919900936E+02  0.70372403362E+02  0.00000000000E+00 0.  1.
          1    1    3    3  501    0  0.25175596959E+02  0.91611077869E+01 -0.25689004243E+03  0.25828323693E+03  0.00000000000E+00 0.  1.
         -3    1    1    2    0  502 -0.33118993694E+02 -0.97816368924E+01 -0.67182372820E+03  0.67271068814E+03  0.00000000000E+00 0. -1.
<mgrwt>
<rscale>  1 0.30000000E+03</rscale>
<asrwt>0</asrwt>
<pdfrwt beam="1">  1       21 0.49684775E-02 0.30000000E+03</pdfrwt>
<pdfrwt beam="2">0</pdfrwt>
<totfact> 0.29116843E+04</totfact>
</mgrwt>
</event>
<event>
 6    1  0.1273846E-001  0.3000000E+03  0.7818608E-02  0.1093470E+00
         21   -1    0    0  501  502  0.00000000000E+00  0.00000000000E+00  0.13094404332E+01  0.13094404332E+01  0.00000000000E+00 0. -1.
         13   -1    0    0    0    0 -0.00000000000E+00 -0.00000000000E+00 -0.10000000000E+04  0.10000000000E+04  0.00000000000E+00 0.  1.
    9000005    2    1    2  501    0  0.22759391857E+02  0.25134763765E+02 -0.32917373558E+03  0.33093452752E+03  0.35450020304E+01 0.  0.
         13    1    3    3    0    0  0.16502282117E+02  0.19859461552E+02 -0.23936867087E+03  0.24075731374E+03  0.00000000000E+00 0.  1.
          3    1    3    3  501    0  0.62571097397E+01  0.52753022124E+01 -0.89805064718E+02  0.90177213777E+02  0.00000000000E+00 0.  1.
         -1    1    1    2    0  502 -0.22759391857E+02 -0.25134763765E+02 -0.66951682398E+03  0.67037491291E+03  0.00000000000E+00 0. -1.
<mgrwt>
<rscale>  1 0.30000000E+03</rscale>
<asrwt>0</asrwt>
<pdfrwt beam="1">  1       21 0.47616116E-02 0.30000000E+03</pdfrwt>
<pdfrwt beam="2">0</pdfrwt>
<totfact> 0.31303275E+04</totfact>
</mgrwt>
</event>
<event>
 6    1  0.1273846E-001  0.3000000E+03  0.7818608E-02  0.1093470E+00
         21   -1    0    0  501  502  0.00000000000E+00  0.00000000000E+00  0.34941723960E+01  0.34941723960E+01  0.00000000000E+00 0. -1.
         13   -1    0    0    0    0 -0.00000000000E+00 -0.00000000000E+00 -0.10000000000E+04  0.10000000000E+04  0.00000000000E+00 0.  1.
    9000005    2    1    2  501    0 -0.44245947310E+02  0.38600489008E+02 -0.55301741266E+03  0.55613561844E+03  0.32963299732E+01 0.  0.
         13    1    3    3    0    0 -0.17820683930E+02  0.17554877917E+02 -0.22957367192E+03  0.23093250389E+03  0.00000000000E+00 0.  1.
          1    1    3    3  501    0 -0.26425263380E+02  0.21045611091E+02 -0.32344374074E+03  0.32520311455E+03  0.00000000000E+00 0.  1.
         -3    1    1    2    0  502  0.44245947310E+02 -0.38600489008E+02 -0.44348841494E+03  0.44735855395E+03  0.00000000000E+00 0. -1.
<mgrwt>
<rscale>  1 0.30000000E+03</rscale>
<asrwt>0</asrwt>
<pdfrwt beam="1">  1       21 0.12706108E-01 0.30000000E+03</pdfrwt>
<pdfrwt beam="2">0</pdfrwt>
<totfact> 0.55847496E+03</totfact>
</mgrwt>
</event>
<event>
 6    1  0.1273846E-001  0.3000000E+03  0.7818608E-02  0.1093470E+00
         21   -1    0    0  501  502  0.00000000000E+00  0.00000000000E+00  0.65019181851E+01  0.65019181851E+01  0.00000000000E+00 0. -1.
         13   -1    0    0    0    0 -0.00000000000E+00 -0.00000000000E+00 -0.10000000000E+04  0.10000000000E+04  0.00000000000E+00 0.  1.
    9000005    2    1    2  501    0 -0.29062155549E+02  0.40386939102E+02 -0.89272900972E+03  0.89411811318E+03  0.25301773798E+01 0.  0.
         13    1    3    3    0    0 -0.23408847629E+02  0.32275481688E+02 -0.73259418667E+03  0.73367835133E+03  0.00000000000E+00 0.  1.
          1    1    3    3  501    0 -0.56533079199E+01  0.81114574141E+01 -0.16013482304E+03  0.16043976185E+03  0.00000000000E+00 0.  1.
         -1    1    1    2    0  502  0.29062155549E+02 -0.40386939102E+02 -0.10076907210E+03  0.11238380500E+03  0.00000000000E+00 0. -1.
<mgrwt>
<rscale>  1 0.30000000E+03</rscale>
<asrwt>0</asrwt>
<pdfrwt beam="1">  1       21 0.23643389E-01 0.30000000E+03</pdfrwt>
<pdfrwt beam="2">0</pdfrwt>
<totfact> 0.17387688E+03</totfact>
</mgrwt>
</event>
<event>
 6    1  0.1273846E-001  0.3000000E+03  0.7818608E-02  0.1093470E+00
         21   -1    0    0  501  502  0.00000000000E+00  0.00000000000E+00  0.17206344077E+01  0.17206344077E+01  0.00000000000E+00 0. -1.
         13   -1    0    0    0    0 -0.00000000000E+00 -0.00000000000E+00 -0.10000000000E+04  0.10000000000E+04  0.00000000000E+00 0.  1.
    9000005    2    1    2  501    0 -0.38533826871E+02 -0.10783209785E+02 -0.62772971786E+03  0.62901676421E+03  0.40444461420E+01 0.  0.
         13    1    3    3    0    0 -0.23377549712E+02 -0.44816337364E+01 -0.36971596126E+03  0.37048142583E+03  0.00000000000E+00 0.  1.
          1    1    3    3  501    0 -0.15156277159E+02 -0.63015760487E+01 -0.25801375660E+03  0.25853533838E+03  0.00000000000E+00 0.  1.
         -3    1    1    2    0  502  0.38533826871E+02  0.10783209785E+02 -0.37054964773E+03  0.37270387020E+03  0.00000000000E+00 0. -1.
<mgrwt>
<rscale>  1 0.30000000E+03</rscale>
<asrwt>0</asrwt>
<pdfrwt beam="1">  1       21 0.62568656E-02 0.30000000E+03</pdfrwt>
<pdfrwt beam="2">0</pdfrwt>
<totfact> 0.19600751E+04</totfact>
</mgrwt>
</event>
<event>
 6    1  0.1273846E-001  0.3000000E+03  0.7818608E-02  0.1093470E+00
         21   -1    0    0  501  502  0.00000000000E+00  0.00000000000E+00  0.23703139742E+01  0.23703139742E+01  0.00000000000E+00 0. -1.
         13   -1    0    0    0    0 -0.00000000000E+00 -0.00000000000E+00 -0.10000000000E+04  0.10000000000E+04  0.00000000000E+00 0.  1.
    9000005    2    1    2  501    0  0.31590229610E+02  0.17806669155E+02 -0.83302697426E+03  0.83382040210E+03  0.27391668213E+01 0.  0.
         13    1    3    3    0    0  0.17080616503E+02  0.11154644267E+02 -0.47378139330E+03  0.47422039410E+03  0.00000000000E+00 0.  1.
          1    1    3    3  501    0  0.14509613107E+02  0.66520248884E+01 -0.35924558096E+03  0.35960000799E+03  0.00000000000E+00 0.  1.
         -1    1    1    2    0  502 -0.31590229610E+02 -0.17806669155E+02 -0.16460271176E+03  0.16854991187E+03  0.00000000000E+00 0. -1.
<mgrwt>
<rscale>  1 0.30000000E+03</rscale>
<asrwt>0</asrwt>
<pdfrwt beam="1">  1       21 0.86193417E-02 0.30000000E+03</pdfrwt>
<pdfrwt beam="2">0</pdfrwt>
<totfact> 0.11202283E+04</totfact>
</mgrwt>
</event>
<event>
 6    1  0.1273846E-001  0.3000000E+03  0.7818608E-02  0.1093470E+00
         21   -1    0    0  501  502  0.00000000000E+00  0.00000000000E+00  0.12264213297E+01  0.12264213297E+01  0.00000000000E+00 0. -1.
         13   -1    0    0    0    0 -0.00000000000E+00 -0.00000000000E+00 -0.10000000000E+04  0.10000000000E+04  0.00000000000E+00 0.  1.
    9000005    2    1    2  501    0  0.28980980230E+02  0.19302144123E+02 -0.54071765308E+03  0.54184890669E+03  0.34910388602E+01 0.  0.
         13    1    3    3    0    0  0.40034079195E+01  0.16584280457E+01 -0.80241654099E+02  0.80358575840E+02  0.00000000000E+00 0.  1.
          1    1    3    3  501    0  0.24977572310E+02  0.17643716077E+02 -0.46047599898E+03  0.46149033085E+03  0.00000000000E+00 0.  1.
         -1    1    1    2    0  502 -0.28980980230E+02 -0.19302144123E+02 -0.45805592559E+03  0.45937751464E+03  0.00000000000E+00 0. -1.
<mgrwt>
<rscale>  1 0.30000000E+03</rscale>
<asrwt>0</asrwt>
<pdfrwt beam="1">  1       21 0.44597233E-02 0.30000000E+03</pdfrwt>
<pdfrwt beam="2">0</pdfrwt>
<totfact> 0.34987733E+04</totfact>
</mgrwt>
</event>
<event>
 6    1  0.1273846E-001  0.3000000E+03  0.7818608E-02  0.1093470E+00
         21   -1    0    0  501  502  0.00000000000E+00  0.00000000000E+00  0.18623650399E+01  0.18623650399E+01  0.00000000000E+00 0. -1.
         13   -1    0    0    0    0 -0.00000000000E+00 -0.00000000000E+00 -0.10000000000E+04  0.10000000000E+04  0.00000000000E+00 0.  1.
    9000005    2    1    2  501    0  0.36006450412E+01  0.41326067837E+02 -0.37203190074E+03  0.37438392003E+03  0.58971079338E+01 0.  0.
         13    1    3    3    0    0 -0.11498445305E+00  0.18570627089E+01 -0.30952746161E+02  0.31008618128E+02  0.00000000000E+00 0.  1.
          1    1    3    3  501    0  0.37156294942E+01  0.39469005128E+02 -0.34107915458E+03  0.34337530190E+03  0.00000000000E+00 0.  1.
         -3    1    1    2    0  502 -0.36006450412E+01 -0.41326067837E+02 -0.62610573422E+03  0.62747844501E+03  0.00000000000E+00 0. -1.
<mgrwt>
<rscale>  1 0.30000000E+03</rscale>
<asrwt>0</asrwt>
<pdfrwt beam="1">  1       21 0.67722508E-02 0.30000000E+03</pdfrwt>
<pdfrwt beam="2">0</pdfrwt>
<totfact> 0.17090100E+04</totfact>
</mgrwt>
</event>
<event>
 6    1  0.1273846E-001  0.3000000E+03  0.7818608E-02  0.1093470E+00
         21   -1    0    0  501  502  0.00000000000E+00  0.00000000000E+00  0.18238534994E+01  0.18238534994E+01  0.00000000000E+00 0. -1.
         13   -1    0    0    0    0 -0.00000000000E+00 -0.00000000000E+00 -0.10000000000E+04  0.10000000000E+04  0.00000000000E+00 0.  1.
    9000005    2    1    2  501    0  0.13675863892E+02 -0.39950248454E+02 -0.46926734180E+03  0.47123213165E+03  0.80518454530E+01 0.  0.
         13    1    3    3    0    0  0.13366319354E+02 -0.28737111493E+02 -0.35851942215E+03  0.35991756852E+03  0.00000000000E+00 0.  1.
          3    1    3    3  501    0  0.30954453862E+00 -0.11213136961E+02 -0.11074791965E+03  0.11131456313E+03  0.00000000000E+00 0.  1.
         -1    1    1    2    0  502 -0.13675863892E+02  0.39950248454E+02 -0.52890880470E+03  0.53059172185E+03  0.00000000000E+00 0. -1.
<mgrwt>
<rscale>  1 0.30000000E+03</rscale>
<asrwt>0</asrwt>
<pdfrwt beam="1">  1       21 0.66322085E-02 0.30000000E+03</pdfrwt>
<pdfrwt beam="2">0</pdfrwt>
<totfact> 0.17720957E+04</totfact>
</mgrwt>
</event>
<event>
 6    1  0.1273846E-001  0.3000000E+03  0.7818608E-02  0.1093470E+00
         21   -1    0    0  501  502  0.00000000000E+00  0.00000000000E+00  0.25459986525E+02  0.25459986525E+02  0.00000000000E+00 0. -1.
         13   -1    0    0    0    0 -0.00000000000E+00 -0.00000000000E+00 -0.10000000000E+04  0.10000000000E+04  0.00000000000E+00 0.  1.
    9000005    2    1    2  501    0  0.42594128737E+02  0.41898148328E+02 -0.96269294424E+03  0.96454966157E+03  0.29377046982E+01 0.  0.
         13    1    3    3    0    0  0.74704149044E+01  0.84056221114E+01 -0.16754771723E+03  0.16792468292E+03  0.00000000000E+00 0.  1.
          1    1    3    3  501    0  0.35123713833E+02  0.33492526217E+02 -0.79514522701E+03  0.79662497866E+03  0.00000000000E+00 0.  1.
         -3    1    1    2    0  502 -0.42594128737E+02 -0.41898148328E+02 -0.11847069231E+02  0.60910324950E+02  0.00000000000E+00 0. -1.
<mgrwt>
<rscale>  1 0.30000000E+03</rscale>
<asrwt>0</asrwt>
<pdfrwt beam="1">  1       21 0.92581964E-01 0.30000000E+03</pdfrwt>
<pdfrwt beam="2">0</pdfrwt>
<totfact> 0.89594614E+01</totfact>
</mgrwt>
</event>
<event>
 6    1  0.1273846E-001  0.3000000E+03  0.7818608E-02  0.1093470E+00
         21   -1    0    0  501  502  0.00000000000E+00  0.00000000000E+00  0.24223718131E+01  0.24223718131E+01  0.00000000000E+00 0. -1.
         13   -1    0    0    0    0 -0.00000000000E+00 -0.00000000000E+00 -0.10000000000E+04  0.10000000000E+04  0.00000000000E+00 0.  1.
    9000005    2    1    2  501    0 -0.29174887060E+02 -0.94835303099E+01 -0.89055080033E+03  0.89108570552E+03  0.34489441717E+01 0.  0.
         13    1    3    3    0    0 -0.48166404279E+01 -0.18586886890E+01 -0.11681340349E+03  0.11692743897E+03  0.00000000000E+00 0.  1.
          3    1    3    3  501    0 -0.24358246632E+02 -0.76248416208E+01 -0.77373739684E+03  0.77415826654E+03  0.00000000000E+00 0.  1.
         -3    1    1    2    0  502  0.29174887060E+02  0.94835303099E+01 -0.10702682785E+03  0.11133666630E+03  0.00000000000E+00 0. -1.
<mgrwt>
<rscale>  1 0.30000000E+03</rscale>
<asrwt>0</asrwt>
<pdfrwt beam="1">  1       21 0.88086434E-02 0.30000000E+03</pdfrwt>
<pdfrwt beam="2">0</pdfrwt>
<totfact> 0.10780462E+04</totfact>
</mgrwt>
</event>
<event>
 6    1  0.1273846E-001  0.3000000E+03  0.7818608E-02  0.1093470E+00
         21   -1    0    0  501  502  0.00000000000E+00  0.00000000000E+00  0.12120907034E+01  0.12120907034E+01  0.00000000000E+00 0. -1.
         13   -1    0    0    0    0 -0.00000000000E+00 -0.00000000000E+00 -0.10000000000E+04  0.10000000000E+04  0.00000000000E+00 0.  1.
    9000005    2    1    2  501    0  0.82060884869E+01 -0.31311010638E+02 -0.33163391571E+03  0.33327334319E+03  0.65075305895E+01 0.  0.
         13    1    3    3    0    0  0.32545425440E+01 -0.11167288127E+02 -0.15235025833E+03  0.15279365688E+03  0.00000000000E+00 0.  1.
          1    1    3    3  501    0  0.49515459430E+01 -0.20143722511E+02 -0.17928365739E+03  0.18047968631E+03  0.00000000000E+00 0.  1.
         -3    1    1    2    0  502 -0.82060884869E+01  0.31311010638E+02 -0.66715399359E+03  0.66793874752E+03  0.00000000000E+00 0. -1.
<mgrwt>
<rscale>  1 0.30000000E+03</rscale>
<asrwt>0</asrwt>
<pdfrwt beam="1">  1       21 0.44076119E-02 0.30000000E+03</pdfrwt>
<pdfrwt beam="2">0</pdfrwt>
<totfact> 0.35691740E+04</totfact>
</mgrwt>
</event>
<event>
 6    1  0.1273846E-001  0.3000000E+03  0.7818608E-02  0.1093470E+00
         21   -1    0    0  501  502  0.00000000000E+00  0.00000000000E+00  0.13490864236E+01  0.13490864236E+01  0.00000000000E+00 0. -1.
         13   -1    0    0    0    0 -0.00000000000E+00 -0.00000000000E+00 -0.10000000000E+04  0.10000000000E+04  0.00000000000E+00 0.  1.
    9000005    2    1    2  501    0  0.28458607321E+02  0.17720624939E+02 -0.70260470732E+03  0.70341072180E+03  0.30587430200E+01 0.  0.
         13    1    3    3    0    0  0.22767757993E+02  0.12727295319E+02 -0.53745675087E+03  0.53808931778E+03  0.00000000000E+00 0.  1.
          3    1    3    3  501    0  0.56908493276E+01  0.49933296197E+01 -0.16514795645E+03  0.16532140402E+03  0.00000000000E+00 0.  1.
         -1    1    1    2    0  502 -0.28458607321E+02 -0.17720624939E+02 -0.29604620625E+03  0.29793836463E+03  0.00000000000E+00 0. -1.
<mgrwt>
<rscale>  1 0.30000000E+03</rscale>
<asrwt>0</asrwt>
<pdfrwt beam="1">  1       21 0.49057792E-02 0.30000000E+03</pdfrwt>
<pdfrwt beam="2">0</pdfrwt>
<totfact> 0.29753682E+04</totfact>
</mgrwt>
</event>
<event>
 6    1  0.1273846E-001  0.3000000E+03  0.7818608E-02  0.1093470E+00
         21   -1    0    0  501  502  0.00000000000E+00  0.00000000000E+00  0.12074221115E+01  0.12074221115E+01  0.00000000000E+00 0. -1.
         13   -1    0    0    0    0 -0.00000000000E+00 -0.00000000000E+00 -0.10000000000E+04  0.10000000000E+04  0.00000000000E+00 0.  1.
    9000005    2    1    2  501    0  0.28839134269E+02  0.18693233670E+02 -0.43483189892E+03  0.43620053713E+03  0.33159653810E+01 0.  0.
         13    1    3    3    0    0  0.60274419767E+01  0.54203009059E+01 -0.94794164699E+02  0.95140124972E+02  0.00000000000E+00 0.  1.
          3    1    3    3  501    0  0.22811692292E+02  0.13272932764E+02 -0.34003773422E+03  0.34106041216E+03  0.00000000000E+00 0.  1.
         -3    1    1    2    0  502 -0.28839134269E+02 -0.18693233670E+02 -0.56396067897E+03  0.56500688498E+03  0.00000000000E+00 0. -1.
<mgrwt>
<rscale>  1 0.30000000E+03</rscale>
<asrwt>0</asrwt>
<pdfrwt beam="1">  1       21 0.43906351E-02 0.30000000E+03</pdfrwt>
<pdfrwt beam="2">0</pdfrwt>
<totfact> 0.35925826E+04</totfact>
</mgrwt>
</event>
<event>
 6    1  0.1273846E-001  0.3000000E+03  0.7818608E-02  0.1093470E+00
         21   -1    0    0  501  502  0.00000000000E+00  0.00000000000E+00  0.47002590102E+01  0.47002590102E+01  0.00000000000E+00 0. -1.
         13   -1    0    0    0    0 -0.00000000000E+00 -0.00000000000E+00 -0.10000000000E+04  0.10000000000E+04  0.00000000000E+00 0.  1.
    9000005    2    1    2  501    0 -0.52622701594E+02  0.75301518928E+01 -0.81472878799E+03  0.81646710311E+03  0.31113631670E+01 0.  0.
         13    1    3    3    0    0 -0.57117976275E+01 -0.63518451775E-01 -0.81413163315E+02  0.81613306683E+02  0.00000000000E+00 0.  1.
          3    1    3    3  501    0 -0.46910903966E+02  0.75936703446E+01 -0.73331562467E+03  0.73485379643E+03  0.00000000000E+00 0.  1.
         -3    1    1    2    0  502  0.52622701594E+02 -0.75301518928E+01 -0.18057095300E+03  0.18823315590E+03  0.00000000000E+00 0. -1.
<mgrwt>
<rscale>  1 0.30000000E+03</rscale>
<asrwt>0</asrwt>
<pdfrwt beam="1">  1       21 0.17091887E-01 0.30000000E+03</pdfrwt>
<pdfrwt beam="2">0</pdfrwt>
<totfact> 0.32287496E+03</totfact>
</mgrwt>
</event>
<event>
 6    1  0.1273846E-001  0.3000000E+03  0.7818608E-02  0.1093470E+00
         21   -1    0    0  501  502  0.00000000000E+00  0.00000000000E+00  0.23825588137E+01  0.23825588137E+01  0.00000000000E+00 0. -1.
         13   -1    0    0    0    0 -0.00000000000E+00 -0.00000000000E+00 -0.10000000000E+04  0.10000000000E+04  0.00000000000E+00 0.  1.
    9000005    2    1    2  501    0  0.43273929574E+02 -0.95619238090E+01 -0.29122457795E+03  0.29460085476E+03  0.37209478819E+01 0.  0.
         13    1    3    3    0    0  0.50636154908E+01 -0.15813540205E+01 -0.28060239053E+02  0.28557273996E+02  0.00000000000E+00 0.  1.
          3    1    3    3  501    0  0.38210314083E+02 -0.79805697884E+01 -0.26316433890E+03  0.26604358076E+03  0.00000000000E+00 0.  1.
         -1    1    1    2    0  502 -0.43273929574E+02  0.95619238090E+01 -0.70639286323E+03  0.70778170406E+03  0.00000000000E+00 0. -1.
<mgrwt>
<rscale>  1 0.30000000E+03</rscale>
<asrwt>0</asrwt>
<pdfrwt beam="1">  1       21 0.86638685E-02 0.30000000E+03</pdfrwt>
<pdfrwt beam="2">0</pdfrwt>
<totfact> 0.11100834E+04</totfact>
</mgrwt>
</event>
<event>
 6    1  0.1273846E-001  0.3000000E+03  0.7818608E-02  0.1093470E+00
         21   -1    0    0  501  502  0.00000000000E+00  0.00000000000E+00  0.29657532291E+01  0.29657532291E+01  0.00000000000E+00 0. -1.
         13   -1    0    0    0    0 -0.00000000000E+00 -0.00000000000E+00 -0.10000000000E+04  0.10000000000E+04  0.00000000000E+00 0.  1.
    9000005    2    1    2  501    0 -0.36230328553E+02  0.21630369979E+02 -0.81511075196E+03  0.81621279455E+03  0.41567304530E+01 0.  0.
         13    1    3    3    0    0 -0.25986767255E+02  0.15399091370E+02 -0.54573747164E+03  0.54657280580E+03  0.00000000000E+00 0.  1.
          1    1    3    3  501    0 -0.10243561298E+02  0.62312786094E+01 -0.26937328032E+03  0.26963998875E+03  0.00000000000E+00 0.  1.
         -1    1    1    2    0  502  0.36230328553E+02 -0.21630369979E+02 -0.18192349481E+03  0.18675295868E+03  0.00000000000E+00 0. -1.
<mgrwt>
<rscale>  1 0.30000000E+03</rscale>
<asrwt>0</asrwt>
<pdfrwt beam="1">  1       21 0.10784580E-01 0.30000000E+03</pdfrwt>
<pdfrwt beam="2">0</pdfrwt>
<totfact> 0.75144975E+03</totfact>
</mgrwt>
</event>
<event>
 6    1  0.1273846E-001  0.3000000E+03  0.7818608E-02  0.1093470E+00
         21   -1    0    0  501  502  0.00000000000E+00  0.00000000000E+00  0.11342260656E+01  0.11342260656E+01  0.00000000000E+00 0. -1.
         13   -1    0    0    0    0 -0.00000000000E+00 -0.00000000000E+00 -0.10000000000E+04  0.10000000000E+04  0.00000000000E+00 0.  1.
    9000005    2    1    2  501    0  0.33296145413E+02  0.36357170568E+01 -0.45679239536E+03  0.45802705479E+03  0.27638230758E+01 0.  0.
         13    1    3    3    0    0  0.30411444635E+02  0.31795362627E+01 -0.42625781203E+03  0.42735311831E+03  0.00000000000E+00 0.  1.
          1    1    3    3  501    0  0.28847007784E+01  0.45618079406E+00 -0.30534583335E+02  0.30673936476E+02  0.00000000000E+00 0.  1.
         -3    1    1    2    0  502 -0.33296145413E+02 -0.36357170568E+01 -0.54207337857E+03  0.54310717128E+03  0.00000000000E+00 0. -1.
<mgrwt>
<rscale>  1 0.30000000E+03</rscale>
<asrwt>0</asrwt>
<pdfrwt beam="1">  1       21 0.41244671E-02 0.30000000E+03</pdfrwt>
<pdfrwt beam="2">0</pdfrwt>
<totfact> 0.39930928E+04</totfact>
</mgrwt>
</event>
<event>
 6    1  0.1273846E-001  0.3000000E+03  0.7818608E-02  0.1093470E+00
         21   -1    0    0  501  502  0.00000000000E+00  0.00000000000E+00  0.93928259850E+00  0.93928259850E+00  0.00000000000E+00 0. -1.
         13   -1    0    0    0    0 -0.00000000000E+00 -0.00000000000E+00 -0.10000000000E+04  0.10000000000E+04  0.00000000000E+00 0.  1.
    9000005    2    1    2  501    0 -0.34127002753E+01 -0.30167102195E+02 -0.54425250802E+03  0.54511891459E+03  0.47051005168E+01 0.  0.
         13    1    3    3    0    0 -0.16766333747E+01 -0.81327567429E+01 -0.11634301232E+03  0.11663897011E+03  0.00000000000E+00 0.  1.
          3    1    3    3  501    0 -0.17360669006E+01 -0.22034345452E+02 -0.42790949570E+03  0.42847994447E+03  0.00000000000E+00 0.  1.
         -1    1    1    2    0  502  0.34127002753E+01  0.30167102195E+02 -0.45480820938E+03  0.45582036801E+03  0.00000000000E+00 0. -1.
<mgrwt>
<rscale>  1 0.30000000E+03</rscale>
<asrwt>0</asrwt>
<pdfrwt beam="1">  1       21 0.34155803E-02 0.30000000E+03</pdfrwt>
<pdfrwt beam="2">0</pdfrwt>
<totfact> 0.54810585E+04</totfact>
</mgrwt>
</event>
<event>
 6    1  0.1273846E-001  0.3000000E+03  0.7818608E-02  0.1093470E+00
         21   -1    0    0  501  502  0.00000000000E+00  0.00000000000E+00  0.18147575688E+01  0.18147575688E+01  0.00000000000E+00 0. -1.
         13   -1    0    0    0    0 -0.00000000000E+00 -0.00000000000E+00 -0.10000000000E+04  0.10000000000E+04  0.00000000000E+00 0.  1.
    9000005    2    1    2  501    0 -0.37333319251E+00 -0.30168601518E+02 -0.85240296265E+03  0.85294314512E+03  0.33036609726E+01 0.  0.
         13    1    3    3    0    0  0.14619284055E+01 -0.11760692267E+02 -0.32970608057E+03  0.32991900625E+03  0.00000000000E+00 0.  1.
          3    1    3    3  501    0 -0.18352615980E+01 -0.18407909251E+02 -0.52269688207E+03  0.52302413887E+03  0.00000000000E+00 0.  1.
         -1    1    1    2    0  502  0.37333319251E+00  0.30168601518E+02 -0.14578227979E+03  0.14887161245E+03  0.00000000000E+00 0. -1.
<mgrwt>
<rscale>  1 0.30000000E+03</rscale>
<asrwt>0</asrwt>
<pdfrwt beam="1">  1       21 0.65991323E-02 0.30000000E+03</pdfrwt>
<pdfrwt beam="2">0</pdfrwt>
<totfact> 0.17875190E+04</totfact>
</mgrwt>
</event>
<event>
 6    1  0.1273846E-001  0.3000000E+03  0.7818608E-02  0.1093470E+00
         21   -1    0    0  501  502  0.00000000000E+00  0.00000000000E+00  0.10601869287E+01  0.10601869287E+01  0.00000000000E+00 0. -1.
         13   -1    0    0    0    0 -0.00000000000E+00 -0.00000000000E+00 -0.10000000000E+04  0.10000000000E+04  0.00000000000E+00 0.  1.
    9000005    2    1    2  501    0 -0.31443565129E+02 -0.77013458289E+01 -0.48780861985E+03  0.48890483432E+03  0.47622381183E+01 0.  0.
         13    1    3    3    0    0 -0.31416022207E+02 -0.78358422218E+01 -0.47804995644E+03  0.47914520526E+03  0.00000000000E+00 0.  1.
          3    1    3    3  501    0 -0.27542922215E-01  0.13449639282E+00 -0.97586634104E+01  0.97596290631E+01  0.00000000000E+00 0.  1.
         -3    1    1    2    0  502  0.31443565129E+02  0.77013458289E+01 -0.51113119323E+03  0.51215535261E+03  0.00000000000E+00 0. -1.
<mgrwt>
<rscale>  1 0.30000000E+03</rscale>
<asrwt>0</asrwt>
<pdfrwt beam="1">  1       21 0.38552333E-02 0.30000000E+03</pdfrwt>
<pdfrwt beam="2">0</pdfrwt>
<totfact> 0.44737819E+04</totfact>
</mgrwt>
</event>
<event>
 6    1  0.1273846E-001  0.3000000E+03  0.7818608E-02  0.1093470E+00
         21   -1    0    0  501  502  0.00000000000E+00  0.00000000000E+00  0.39580014396E+01  0.39580014396E+01  0.00000000000E+00 0. -1.
         13   -1    0    0    0    0 -0.00000000000E+00 -0.00000000000E+00 -0.10000000000E+04  0.10000000000E+04  0.00000000000E+00 0.  1.
    9000005    2    1    2  501    0  0.53005499676E+02 -0.82220533600E+01 -0.76000779473E+03  0.76190567128E+03  0.33494361102E+01 0.  0.
         13    1    3    3    0    0  0.39894787220E+02 -0.47196302063E+01 -0.56939492977E+03  0.57081034942E+03  0.00000000000E+00 0.  1.
          3    1    3    3  501    0  0.13110712456E+02 -0.35024231536E+01 -0.19061286497E+03  0.19109532187E+03  0.00000000000E+00 0.  1.
         -3    1    1    2    0  502 -0.53005499676E+02  0.82220533600E+01 -0.23603420383E+03  0.24205233016E+03  0.00000000000E+00 0. -1.
<mgrwt>
<rscale>  1 0.30000000E+03</rscale>
<asrwt>0</asrwt>
<pdfrwt beam="1">  1       21 0.14392763E-01 0.30000000E+03</pdfrwt>
<pdfrwt beam="2">0</pdfrwt>
<totfact> 0.44445717E+03</totfact>
</mgrwt>
</event>
<event>
 6    1  0.1273846E-001  0.3000000E+03  0.7818608E-02  0.1093470E+00
         21   -1    0    0  501  502  0.00000000000E+00  0.00000000000E+00  0.63469028745E+01  0.63469028745E+01  0.00000000000E+00 0. -1.
         13   -1    0    0    0    0 -0.00000000000E+00 -0.00000000000E+00 -0.10000000000E+04  0.10000000000E+04  0.00000000000E+00 0.  1.
    9000005    2    1    2  501    0 -0.16629640797E+02  0.39954492055E+02 -0.91923924689E+03  0.92026364378E+03  0.33874273656E+01 0.  0.
         13    1    3    3    0    0 -0.32126536713E+01  0.73428287286E+01 -0.19975873368E+03  0.19991945868E+03  0.00000000000E+00 0.  1.
          1    1    3    3  501    0 -0.13416987125E+02  0.32611663326E+02 -0.71948051320E+03  0.72034418510E+03  0.00000000000E+00 0.  1.
         -3    1    1    2    0  502  0.16629640797E+02 -0.39954492055E+02 -0.74413850237E+02  0.86083259090E+02  0.00000000000E+00 0. -1.
<mgrwt>
<rscale>  1 0.30000000E+03</rscale>
<asrwt>0</asrwt>
<pdfrwt beam="1">  1       21 0.23079695E-01 0.30000000E+03</pdfrwt>
<pdfrwt beam="2">0</pdfrwt>
<totfact> 0.18220396E+03</totfact>
</mgrwt>
</event>
<event>
 6    1  0.1273846E-001  0.3000000E+03  0.7818608E-02  0.1093470E+00
         21   -1    0    0  501  502  0.00000000000E+00  0.00000000000E+00  0.43636820719E+01  0.43636820719E+01  0.00000000000E+00 0. -1.
         13   -1    0    0    0    0 -0.00000000000E+00 -0.00000000000E+00 -0.10000000000E+04  0.10000000000E+04  0.00000000000E+00 0.  1.
    9000005    2    1    2  501    0  0.27850345635E+02 -0.16041710991E+02 -0.93647540572E+03  0.93703618563E+03  0.42011216057E+01 0.  0.
         13    1    3    3    0    0  0.16338787688E+02 -0.95724546934E+01 -0.60997120350E+03  0.61026507107E+03  0.00000000000E+00 0.  1.
          1    1    3    3  501    0  0.11511557948E+02 -0.64692562980E+01 -0.32650420222E+03  0.32677111456E+03  0.00000000000E+00 0.  1.
         -1    1    1    2    0  502 -0.27850345635E+02  0.16041710991E+02 -0.59160912210E+02  0.67327496441E+02  0.00000000000E+00 0. -1.
<mgrwt>
<rscale>  1 0.30000000E+03</rscale>
<asrwt>0</asrwt>
<pdfrwt beam="1">  1       21 0.15867968E-01 0.30000000E+03</pdfrwt>
<pdfrwt beam="2">0</pdfrwt>
<totfact> 0.37095001E+03</totfact>
</mgrwt>
</event>
<event>
 6    1  0.1273846E-001  0.3000000E+03  0.7818608E-02  0.1093470E+00
         21   -1    0    0  501  502  0.00000000000E+00  0.00000000000E+00  0.60068054356E+01  0.60068054356E+01  0.00000000000E+00 0. -1.
         13   -1    0    0    0    0 -0.00000000000E+00 -0.00000000000E+00 -0.10000000000E+04  0.10000000000E+04  0.00000000000E+00 0.  1.
    9000005    2    1    2  501    0 -0.37955177778E+02 -0.36034888720E+02 -0.86726896925E+03  0.86890050358E+03  0.96701284061E+01 0.  0.
         13    1    3    3    0    0 -0.55433333654E+01 -0.93875739740E+01 -0.22331140799E+03  0.22357736922E+03  0.00000000000E+00 0.  1.
          3    1    3    3  501    0 -0.32411844413E+02 -0.26647314746E+02 -0.64395756126E+03  0.64532313437E+03  0.00000000000E+00 0.  1.
         -3    1    1    2    0  502  0.37955177778E+02  0.36034888720E+02 -0.12672422532E+03  0.13710630185E+03  0.00000000000E+00 0. -1.
<mgrwt>
<rscale>  1 0.30000000E+03</rscale>
<asrwt>0</asrwt>
<pdfrwt beam="1">  1       21 0.21842975E-01 0.30000000E+03</pdfrwt>
<pdfrwt beam="2">0</pdfrwt>
<totfact> 0.20263380E+03</totfact>
</mgrwt>
</event>
<event>
 6    1  0.1273846E-001  0.3000000E+03  0.7818608E-02  0.1093470E+00
         21   -1    0    0  501  502  0.00000000000E+00  0.00000000000E+00  0.22513139734E+01  0.22513139734E+01  0.00000000000E+00 0. -1.
         13   -1    0    0    0    0 -0.00000000000E+00 -0.00000000000E+00 -0.10000000000E+04  0.10000000000E+04  0.00000000000E+00 0.  1.
    9000005    2    1    2  501    0  0.39861542621E+02  0.15738352688E+02 -0.71257380647E+03  0.71387421666E+03  0.42812635867E+01 0.  0.
         13    1    3    3    0    0  0.28942543236E+02  0.11426770355E+02 -0.48410140335E+03  0.48510041292E+03  0.00000000000E+00 0.  1.
          3    1    3    3  501    0  0.10918999385E+02  0.43115823328E+01 -0.22847240312E+03  0.22877380374E+03  0.00000000000E+00 0.  1.
         -1    1    1    2    0  502 -0.39861542621E+02 -0.15738352688E+02 -0.28517487956E+03  0.28837709731E+03  0.00000000000E+00 0. -1.
<mgrwt>
<rscale>  1 0.30000000E+03</rscale>
<asrwt>0</asrwt>
<pdfrwt beam="1">  1       21 0.81866135E-02 0.30000000E+03</pdfrwt>
<pdfrwt beam="2">0</pdfrwt>
<totfact> 0.12266504E+04</totfact>
</mgrwt>
</event>
<event>
 6    1  0.1273846E-001  0.3000000E+03  0.7818608E-02  0.1093470E+00
         21   -1    0    0  501  502  0.00000000000E+00  0.00000000000E+00  0.17654032660E+01  0.17654032660E+01  0.00000000000E+00 0. -1.
         13   -1    0    0    0    0 -0.00000000000E+00 -0.00000000000E+00 -0.10000000000E+04  0.10000000000E+04  0.00000000000E+00 0.  1.
    9000005    2    1    2  501    0 -0.15282393546E+02 -0.38801218618E+02 -0.55222459997E+03  0.55381004463E+03  0.38040242608E+01 0.  0.
         13    1    3    3    0    0 -0.39085731658E+01 -0.12945187901E+02 -0.16083452646E+03  0.16140198182E+03  0.00000000000E+00 0.  1.
          1    1    3    3  501    0 -0.11373820380E+02 -0.25856030717E+02 -0.39139007351E+03  0.39240806281E+03  0.00000000000E+00 0.  1.
         -1    1    1    2    0  502  0.15282393546E+02  0.38801218618E+02 -0.44600999676E+03  0.44795535864E+03  0.00000000000E+00 0. -1.
<mgrwt>
<rscale>  1 0.30000000E+03</rscale>
<asrwt>0</asrwt>
<pdfrwt beam="1">  1       21 0.64196618E-02 0.30000000E+03</pdfrwt>
<pdfrwt beam="2">0</pdfrwt>
<totfact> 0.18749315E+04</totfact>
</mgrwt>
</event>
<event>
 6    1  0.1273846E-001  0.3000000E+03  0.7818608E-02  0.1093470E+00
         21   -1    0    0  501  502  0.00000000000E+00  0.00000000000E+00  0.76981354077E+01  0.76981354077E+01  0.00000000000E+00 0. -1.
         13   -1    0    0    0    0 -0.00000000000E+00 -0.00000000000E+00 -0.10000000000E+04  0.10000000000E+04  0.00000000000E+00 0.  1.
    9000005    2    1    2  501    0 -0.32361545385E+02 -0.80269959291E+01 -0.96218237176E+03  0.96276611863E+03  0.34612673004E+01 0.  0.
         13    1    3    3    0    0 -0.27365608634E+02 -0.66684137343E+01 -0.77325549299E+03  0.77376831268E+03  0.00000000000E+00 0.  1.
          3    1    3    3  501    0 -0.49959367513E+01 -0.13585821949E+01 -0.18892687877E+03  0.18899780595E+03  0.00000000000E+00 0.  1.
         -1    1    1    2    0  502  0.32361545385E+02  0.80269959291E+01 -0.30119492833E+02  0.44932016780E+02  0.00000000000E+00 0. -1.
<mgrwt>
<rscale>  1 0.30000000E+03</rscale>
<asrwt>0</asrwt>
<pdfrwt beam="1">  1       21 0.27993279E-01 0.30000000E+03</pdfrwt>
<pdfrwt beam="2">0</pdfrwt>
<totfact> 0.12479933E+03</totfact>
</mgrwt>
</event>
<event>
 6    1  0.1273846E-001  0.3000000E+03  0.7818608E-02  0.1093470E+00
         21   -1    0    0  501  502  0.00000000000E+00  0.00000000000E+00  0.25313475893E+01  0.25313475893E+01  0.00000000000E+00 0. -1.
         13   -1    0    0    0    0 -0.00000000000E+00 -0.00000000000E+00 -0.10000000000E+04  0.10000000000E+04  0.00000000000E+00 0.  1.
    9000005    2    1    2  501    0  0.41259600620E+02 -0.12130799608E+02 -0.75608227859E+03  0.75734388379E+03  0.77353319269E+01 0.  0.
         13    1    3    3    0    0  0.40609600132E+02 -0.10582764485E+02 -0.71908027786E+03  0.72030381127E+03  0.00000000000E+00 0.  1.
          1    1    3    3  501    0  0.65000048881E+00 -0.15480351234E+01 -0.37002000736E+02  0.37040072514E+02  0.00000000000E+00 0.  1.
         -3    1    1    2    0  502 -0.41259600620E+02  0.12130799608E+02 -0.24138637382E+03  0.24518746380E+03  0.00000000000E+00 0. -1.
<mgrwt>
<rscale>  1 0.30000000E+03</rscale>
<asrwt>0</asrwt>
<pdfrwt beam="1">  1       21 0.92049197E-02 0.30000000E+03</pdfrwt>
<pdfrwt beam="2">0</pdfrwt>
<totfact> 0.99718722E+03</totfact>
</mgrwt>
</event>
<event>
 6    1  0.1273846E-001  0.3000000E+03  0.7818608E-02  0.1093470E+00
         21   -1    0    0  501  502  0.00000000000E+00  0.00000000000E+00  0.19427044049E+01  0.19427044049E+01  0.00000000000E+00 0. -1.
         13   -1    0    0    0    0 -0.00000000000E+00 -0.00000000000E+00 -0.10000000000E+04  0.10000000000E+04  0.00000000000E+00 0.  1.
    9000005    2    1    2  501    0  0.10710617444E+02 -0.41132490041E+02 -0.62945239901E+03  0.63089531006E+03  0.34598517802E+01 0.  0.
         13    1    3    3    0    0  0.52355928626E+01 -0.24909767045E+02 -0.39370684933E+03  0.39452882168E+03  0.00000000000E+00 0.  1.
          1    1    3    3  501    0  0.54750245811E+01 -0.16222722996E+02 -0.23574554968E+03  0.23636648838E+03  0.00000000000E+00 0.  1.
         -1    1    1    2    0  502 -0.10710617444E+02  0.41132490041E+02 -0.36860489658E+03  0.37104739434E+03  0.00000000000E+00 0. -1.
<mgrwt>
<rscale>  1 0.30000000E+03</rscale>
<asrwt>0</asrwt>
<pdfrwt beam="1">  1       21 0.70643946E-02 0.30000000E+03</pdfrwt>
<pdfrwt beam="2">0</pdfrwt>
<totfact> 0.15880090E+04</totfact>
</mgrwt>
</event>
<event>
 6    1  0.1273846E-001  0.3000000E+03  0.7818608E-02  0.1093470E+00
         21   -1    0    0  501  502  0.00000000000E+00  0.00000000000E+00  0.20812583838E+01  0.20812583838E+01  0.00000000000E+00 0. -1.
         13   -1    0    0    0    0 -0.00000000000E+00 -0.00000000000E+00 -0.10000000000E+04  0.10000000000E+04  0.00000000000E+00 0.  1.
    9000005    2    1    2  501    0 -0.41764211832E+02 -0.29631390786E+01 -0.69614292193E+03  0.69741476051E+03  0.43989580831E+01 0.  0.
         13    1    3    3    0    0 -0.21655291399E+02 -0.64975426077E+00 -0.32644886951E+03  0.32716698829E+03  0.00000000000E+00 0.  1.
          1    1    3    3  501    0 -0.20108920433E+02 -0.23133848178E+01 -0.36969405243E+03  0.37024777221E+03  0.00000000000E+00 0.  1.
         -1    1    1    2    0  502  0.41764211832E+02  0.29631390786E+01 -0.30177581968E+03  0.30466649788E+03  0.00000000000E+00 0. -1.
<mgrwt>
<rscale>  1 0.30000000E+03</rscale>
<asrwt>0</asrwt>
<pdfrwt beam="1">  1       21 0.75682283E-02 0.30000000E+03</pdfrwt>
<pdfrwt beam="2">0</pdfrwt>
<totfact> 0.14079399E+04</totfact>
</mgrwt>
</event>
<event>
 6    1  0.1273846E-001  0.3000000E+03  0.7818608E-02  0.1093470E+00
         21   -1    0    0  501  502  0.00000000000E+00  0.00000000000E+00  0.14986674379E+01  0.14986674379E+01  0.00000000000E+00 0. -1.
         13   -1    0    0    0    0 -0.00000000000E+00 -0.00000000000E+00 -0.10000000000E+04  0.10000000000E+04  0.00000000000E+00 0.  1.
    9000005    2    1    2  501    0 -0.35256600866E+02 -0.15832426934E+02 -0.49240518440E+03  0.49392896303E+03  0.30432301345E+01 0.  0.
         13    1    3    3    0    0 -0.23760865219E+02 -0.12088739733E+02 -0.33156787410E+03  0.33263789844E+03  0.00000000000E+00 0.  1.
          1    1    3    3  501    0 -0.11495735648E+02 -0.37436872004E+01 -0.16083731031E+03  0.16129106460E+03  0.00000000000E+00 0.  1.
         -1    1    1    2    0  502  0.35256600866E+02  0.15832426934E+02 -0.50609614816E+03  0.50756970440E+03  0.00000000000E+00 0. -1.
<mgrwt>
<rscale>  1 0.30000000E+03</rscale>
<asrwt>0</asrwt>
<pdfrwt beam="1">  1       21 0.54497113E-02 0.30000000E+03</pdfrwt>
<pdfrwt beam="2">0</pdfrwt>
<totfact> 0.24862540E+04</totfact>
</mgrwt>
</event>
<event>
 6    1  0.1273846E-001  0.3000000E+03  0.7818608E-02  0.1093470E+00
         21   -1    0    0  501  502  0.00000000000E+00  0.00000000000E+00  0.96306861917E+00  0.96306861917E+00  0.00000000000E+00 0. -1.
         13   -1    0    0    0    0 -0.00000000000E+00 -0.00000000000E+00 -0.10000000000E+04  0.10000000000E+04  0.00000000000E+00 0.  1.
    9000005    2    1    2  501    0  0.18861811207E+02 -0.23382829434E+02 -0.61724861733E+03  0.61799460859E+03  0.43538501727E+01 0.  0.
         13    1    3    3    0    0  0.70568662075E+01 -0.91891288796E+01 -0.28223382641E+03  0.28247154232E+03  0.00000000000E+00 0.  1.
          1    1    3    3  501    0  0.11804945000E+02 -0.14193700554E+02 -0.33501479092E+03  0.33552306627E+03  0.00000000000E+00 0.  1.
         -1    1    1    2    0  502 -0.18861811207E+02  0.23382829434E+02 -0.38178831405E+03  0.38296846003E+03  0.00000000000E+00 0. -1.
<mgrwt>
<rscale>  1 0.30000000E+03</rscale>
<asrwt>0</asrwt>
<pdfrwt beam="1">  1       21 0.35020751E-02 0.30000000E+03</pdfrwt>
<pdfrwt beam="2">0</pdfrwt>
<totfact> 0.52564611E+04</totfact>
</mgrwt>
</event>
<event>
 6    1  0.1273846E-001  0.3000000E+03  0.7818608E-02  0.1093470E+00
         21   -1    0    0  501  502  0.00000000000E+00  0.00000000000E+00  0.12177497984E+01  0.12177497984E+01  0.00000000000E+00 0. -1.
         13   -1    0    0    0    0 -0.00000000000E+00 -0.00000000000E+00 -0.10000000000E+04  0.10000000000E+04  0.00000000000E+00 0.  1.
    9000005    2    1    2  501    0  0.23500336369E+01 -0.34678631182E+02 -0.49921368354E+03  0.50044146950E+03  0.43854802921E+01 0.  0.
         13    1    3    3    0    0 -0.88785457589E+00 -0.11622012978E+02 -0.18436271355E+03  0.18473080311E+03  0.00000000000E+00 0.  1.
          1    1    3    3  501    0  0.32378882128E+01 -0.23056618204E+02 -0.31485096999E+03  0.31571066638E+03  0.00000000000E+00 0.  1.
         -3    1    1    2    0  502 -0.23500336369E+01  0.34678631182E+02 -0.49956856666E+03  0.50077628030E+03  0.00000000000E+00 0. -1.
<mgrwt>
<rscale>  1 0.30000000E+03</rscale>
<asrwt>0</asrwt>
<pdfrwt beam="1">  1       21 0.44281904E-02 0.30000000E+03</pdfrwt>
<pdfrwt beam="2">0</pdfrwt>
<totfact> 0.35411138E+04</totfact>
</mgrwt>
</event>
<event>
 6    1  0.1273846E-001  0.3000000E+03  0.7818608E-02  0.1093470E+00
         21   -1    0    0  501  502  0.00000000000E+00  0.00000000000E+00  0.12078425604E+02  0.12078425604E+02  0.00000000000E+00 0. -1.
         13   -1    0    0    0    0 -0.00000000000E+00 -0.00000000000E+00 -0.10000000000E+04  0.10000000000E+04  0.00000000000E+00 0.  1.
    9000005    2    1    2  501    0  0.36194375729E+02 -0.49930921593E+02 -0.91279854699E+03  0.91488480949E+03  0.31460287907E+01 0.  0.
         13    1    3    3    0    0  0.26318022946E+02 -0.34113617031E+02 -0.62726179411E+03  0.62873979956E+03  0.00000000000E+00 0.  1.
          3    1    3    3  501    0  0.98763527826E+01 -0.15817304561E+02 -0.28553675288E+03  0.28614500994E+03  0.00000000000E+00 0.  1.
         -3    1    1    2    0  502 -0.36194375729E+02  0.49930921593E+02 -0.75123027409E+02  0.97193616110E+02  0.00000000000E+00 0. -1.
<mgrwt>
<rscale>  1 0.30000000E+03</rscale>
<asrwt>0</asrwt>
<pdfrwt beam="1">  1       21 0.43921640E-01 0.30000000E+03</pdfrwt>
<pdfrwt beam="2">0</pdfrwt>
<totfact> 0.49600885E+02</totfact>
</mgrwt>
</event>
<event>
 6    1  0.1273846E-001  0.3000000E+03  0.7818608E-02  0.1093470E+00
         21   -1    0    0  501  502  0.00000000000E+00  0.00000000000E+00  0.16301792453E+01  0.16301792453E+01  0.00000000000E+00 0. -1.
         13   -1    0    0    0    0 -0.00000000000E+00 -0.00000000000E+00 -0.10000000000E+04  0.10000000000E+04  0.00000000000E+00 0.  1.
    9000005    2    1    2  501    0 -0.38019217825E+02 -0.13217376783E+02 -0.48614841767E+03  0.48782970654E+03  0.41687657381E+01 0.  0.
         13    1    3    3    0    0 -0.80044898589E+01 -0.34342901903E+01 -0.87047962532E+02  0.87482649640E+02  0.00000000000E+00 0.  1.
          1    1    3    3  501    0 -0.30014727967E+02 -0.97830865928E+01 -0.39910045514E+03  0.40034705690E+03  0.00000000000E+00 0.  1.
         -1    1    1    2    0  502  0.38019217825E+02  0.13217376783E+02 -0.51222140308E+03  0.51380047270E+03  0.00000000000E+00 0. -1.
<mgrwt>
<rscale>  1 0.30000000E+03</rscale>
<asrwt>0</asrwt>
<pdfrwt beam="1">  1       21 0.59279370E-02 0.30000000E+03</pdfrwt>
<pdfrwt beam="2">0</pdfrwt>
<totfact> 0.21515284E+04</totfact>
</mgrwt>
</event>
<event>
 6    1  0.1273846E-001  0.3000000E+03  0.7818608E-02  0.1093470E+00
         21   -1    0    0  501  502  0.00000000000E+00  0.00000000000E+00  0.17307134903E+01  0.17307134903E+01  0.00000000000E+00 0. -1.
         13   -1    0    0    0    0 -0.00000000000E+00 -0.00000000000E+00 -0.10000000000E+04  0.10000000000E+04  0.00000000000E+00 0.  1.
    9000005    2    1    2  501    0  0.31007043241E+02 -0.30455338494E+01 -0.83050173401E+03  0.83109465728E+03  0.38062002313E+01 0.  0.
         13    1    3    3    0    0  0.22536874076E+02 -0.32202686955E+01 -0.56730765639E+03  0.56776426255E+03  0.00000000000E+00 0.  1.
          3    1    3    3  501    0  0.84701691651E+01  0.17473484616E+00 -0.26319407762E+03  0.26333039474E+03  0.00000000000E+00 0.  1.
         -3    1    1    2    0  502 -0.31007043241E+02  0.30455338494E+01 -0.16776755250E+03  0.17063605621E+03  0.00000000000E+00 0. -1.
<mgrwt>
<rscale>  1 0.30000000E+03</rscale>
<asrwt>0</asrwt>
<pdfrwt beam="1">  1       21 0.62935169E-02 0.30000000E+03</pdfrwt>
<pdfrwt beam="2">0</pdfrwt>
<totfact> 0.19403911E+04</totfact>
</mgrwt>
</event>
<event>
 6    1  0.1273846E-001  0.3000000E+03  0.7818608E-02  0.1093470E+00
         21   -1    0    0  501  502  0.00000000000E+00  0.00000000000E+00  0.41821598951E+01  0.41821598951E+01  0.00000000000E+00 0. -1.
         13   -1    0    0    0    0 -0.00000000000E+00 -0.00000000000E+00 -0.10000000000E+04  0.10000000000E+04  0.00000000000E+00 0.  1.
    9000005    2    1    2  501    0  0.48187766397E+01  0.41078409862E+02 -0.88379006179E+03  0.88476323560E+03  0.32331702298E+01 0.  0.
         13    1    3    3    0    0  0.34422553361E+01  0.21536335790E+02 -0.49392436594E+03  0.49440564535E+03  0.00000000000E+00 0.  1.
          3    1    3    3  501    0  0.13765213036E+01  0.19542074072E+02 -0.38986569585E+03  0.39035759026E+03  0.00000000000E+00 0.  1.
         -3    1    1    2    0  502 -0.48187766397E+01 -0.41078409862E+02 -0.11202777831E+03  0.11941892429E+03  0.00000000000E+00 0. -1.
<mgrwt>
<rscale>  1 0.30000000E+03</rscale>
<asrwt>0</asrwt>
<pdfrwt beam="1">  1       21 0.15207886E-01 0.30000000E+03</pdfrwt>
<pdfrwt beam="2">0</pdfrwt>
<totfact> 0.40143664E+03</totfact>
</mgrwt>
</event>
<event>
 6    1  0.1273846E-001  0.3000000E+03  0.7818608E-02  0.1093470E+00
         21   -1    0    0  501  502  0.00000000000E+00  0.00000000000E+00  0.43823458235E+01  0.43823458235E+01  0.00000000000E+00 0. -1.
         13   -1    0    0    0    0 -0.00000000000E+00 -0.00000000000E+00 -0.10000000000E+04  0.10000000000E+04  0.00000000000E+00 0.  1.
    9000005    2    1    2  501    0 -0.30607770113E+02  0.31504779101E+02 -0.87342282598E+03  0.87453257596E+03  0.32259513137E+01 0.  0.
         13    1    3    3    0    0 -0.74148671544E+01  0.60778081862E+01 -0.17538339378E+03  0.17564525277E+03  0.00000000000E+00 0.  1.
          3    1    3    3  501    0 -0.23192902959E+02  0.25426970915E+02 -0.69803943221E+03  0.69888732319E+03  0.00000000000E+00 0.  1.
         -1    1    1    2    0  502  0.30607770113E+02 -0.31504779101E+02 -0.12219482819E+03  0.12984976987E+03  0.00000000000E+00 0. -1.
<mgrwt>
<rscale>  1 0.30000000E+03</rscale>
<asrwt>0</asrwt>
<pdfrwt beam="1">  1       21 0.15935837E-01 0.30000000E+03</pdfrwt>
<pdfrwt beam="2">0</pdfrwt>
<totfact> 0.36801206E+03</totfact>
</mgrwt>
</event>
<event>
 6    1  0.1273846E-001  0.3000000E+03  0.7818608E-02  0.1093470E+00
         21   -1    0    0  501  502  0.00000000000E+00  0.00000000000E+00  0.14391880957E+01  0.14391880957E+01  0.00000000000E+00 0. -1.
         13   -1    0    0    0    0 -0.00000000000E+00 -0.00000000000E+00 -0.10000000000E+04  0.10000000000E+04  0.00000000000E+00 0.  1.
    9000005    2    1    2  501    0  0.12177419199E+02 -0.32436712081E+02 -0.70173591098E+03  0.70259901068E+03  0.34133884848E+01 0.  0.
         13    1    3    3    0    0  0.10123073062E+02 -0.23864885826E+02 -0.54327694277E+03  0.54389506886E+03  0.00000000000E+00 0.  1.
          1    1    3    3  501    0  0.20543461374E+01 -0.85718262550E+01 -0.15845896820E+03  0.15870394182E+03  0.00000000000E+00 0.  1.
         -3    1    1    2    0  502 -0.12177419199E+02  0.32436712081E+02 -0.29682490093E+03  0.29884017742E+03  0.00000000000E+00 0. -1.
<mgrwt>
<rscale>  1 0.30000000E+03</rscale>
<asrwt>0</asrwt>
<pdfrwt beam="1">  1       21 0.52334223E-02 0.30000000E+03</pdfrwt>
<pdfrwt beam="2">0</pdfrwt>
<totfact> 0.26646580E+04</totfact>
</mgrwt>
</event>
<event>
 6    1  0.1273846E-001  0.3000000E+03  0.7818608E-02  0.1093470E+00
         21   -1    0    0  501  502  0.00000000000E+00  0.00000000000E+00  0.19715172765E+01  0.19715172765E+01  0.00000000000E+00 0. -1.
         13   -1    0    0    0    0 -0.00000000000E+00 -0.00000000000E+00 -0.10000000000E+04  0.10000000000E+04  0.00000000000E+00 0.  1.
    9000005    2    1    2  501    0  0.25551233765E+02 -0.16927323501E+02 -0.86122417176E+03  0.86177587067E+03  0.33432657967E+01 0.  0.
         13    1    3    3    0    0  0.84506790280E+01 -0.48132311348E+01 -0.23503636464E+03  0.23523748399E+03  0.00000000000E+00 0.  1.
          1    1    3    3  501    0  0.17100554737E+02 -0.12114092366E+02 -0.62618780712E+03  0.62653838669E+03  0.00000000000E+00 0.  1.
         -1    1    1    2    0  502 -0.25551233765E+02  0.16927323501E+02 -0.13680431097E+03  0.14019564660E+03  0.00000000000E+00 0. -1.
<mgrwt>
<rscale>  1 0.30000000E+03</rscale>
<asrwt>0</asrwt>
<pdfrwt beam="1">  1       21 0.71691689E-02 0.30000000E+03</pdfrwt>
<pdfrwt beam="2">0</pdfrwt>
<totfact> 0.15477831E+04</totfact>
</mgrwt>
</event>
<event>
 6    1  0.1273846E-001  0.3000000E+03  0.7818608E-02  0.1093470E+00
         21   -1    0    0  501  502  0.00000000000E+00  0.00000000000E+00  0.22996491731E+01  0.22996491731E+01  0.00000000000E+00 0. -1.
         13   -1    0    0    0    0 -0.00000000000E+00 -0.00000000000E+00 -0.10000000000E+04  0.10000000000E+04  0.00000000000E+00 0.  1.
    9000005    2    1    2  501    0  0.33241330036E+02  0.41553990074E+01 -0.85726825913E+03  0.85792712498E+03  0.27982675035E+01 0.  0.
         13    1    3    3    0    0  0.16822523201E+02  0.29678923037E+01 -0.46472212229E+03  0.46503597347E+03  0.00000000000E+00 0.  1.
          1    1    3    3  501    0  0.16418806835E+02  0.11875067036E+01 -0.39254613684E+03  0.39289115152E+03  0.00000000000E+00 0.  1.
         -3    1    1    2    0  502 -0.33241330036E+02 -0.41553990074E+01 -0.14043209169E+03  0.14437252419E+03  0.00000000000E+00 0. -1.
<mgrwt>
<rscale>  1 0.30000000E+03</rscale>
<asrwt>0</asrwt>
<pdfrwt beam="1">  1       21 0.83623783E-02 0.30000000E+03</pdfrwt>
<pdfrwt beam="2">0</pdfrwt>
<totfact> 0.11816342E+04</totfact>
</mgrwt>
</event>
<event>
 6    1  0.1273846E-001  0.3000000E+03  0.7818608E-02  0.1093470E+00
         21   -1    0    0  501  502  0.00000000000E+00  0.00000000000E+00  0.40922737612E+01  0.40922737612E+01  0.00000000000E+00 0. -1.
         13   -1    0    0    0    0 -0.00000000000E+00 -0.00000000000E+00 -0.10000000000E+04  0.10000000000E+04  0.00000000000E+00 0.  1.
    9000005    2    1    2  501    0 -0.35519063760E+02  0.19580082621E+02 -0.88607533692E+03  0.88701051912E+03  0.36297121793E+01 0.  0.
         13    1    3    3    0    0 -0.33977891046E+02  0.18870630545E+02 -0.82996699610E+03  0.83087653258E+03  0.00000000000E+00 0.  1.
          1    1    3    3  501    0 -0.15411727134E+01  0.70945207584E+00 -0.56108340822E+02  0.56133986544E+02  0.00000000000E+00 0.  1.
         -1    1    1    2    0  502  0.35519063760E+02 -0.19580082621E+02 -0.10983238932E+03  0.11708175464E+03  0.00000000000E+00 0. -1.
<mgrwt>
<rscale>  1 0.30000000E+03</rscale>
<asrwt>0</asrwt>
<pdfrwt beam="1">  1       21 0.14881027E-01 0.30000000E+03</pdfrwt>
<pdfrwt beam="2">0</pdfrwt>
<totfact> 0.41791519E+03</totfact>
</mgrwt>
</event>
<event>
 6    1  0.1273846E-001  0.3000000E+03  0.7818608E-02  0.1093470E+00
         21   -1    0    0  501  502  0.00000000000E+00  0.00000000000E+00  0.15868552209E+01  0.15868552209E+01  0.00000000000E+00 0. -1.
         13   -1    0    0    0    0 -0.00000000000E+00 -0.00000000000E+00 -0.10000000000E+04  0.10000000000E+04  0.00000000000E+00 0.  1.
    9000005    2    1    2  501    0  0.23430837334E+01  0.39227519830E+02 -0.42352954713E+03  0.42536169160E+03  0.33170813032E+01 0.  0.
         13    1    3    3    0    0  0.12331367463E+01  0.13192721330E+02 -0.12698751360E+03  0.12767692482E+03  0.00000000000E+00 0.  1.
          3    1    3    3  501    0  0.11099469871E+01  0.26034798499E+02 -0.29654203354E+03  0.29768476677E+03  0.00000000000E+00 0.  1.
         -1    1    1    2    0  502 -0.23430837334E+01 -0.39227519830E+02 -0.57488359764E+03  0.57622516362E+03  0.00000000000E+00 0. -1.
<mgrwt>
<rscale>  1 0.30000000E+03</rscale>
<asrwt>0</asrwt>
<pdfrwt beam="1">  1       21 0.57703948E-02 0.30000000E+03</pdfrwt>
<pdfrwt beam="2">0</pdfrwt>
<totfact> 0.22537275E+04</totfact>
</mgrwt>
</event>
<event>
 6    1  0.1273846E-001  0.3000000E+03  0.7818608E-02  0.1093470E+00
         21   -1    0    0  501  502  0.00000000000E+00  0.00000000000E+00  0.12707358034E+01  0.12707358034E+01  0.00000000000E+00 0. -1.
         13   -1    0    0    0    0 -0.00000000000E+00 -0.00000000000E+00 -0.10000000000E+04  0.10000000000E+04  0.00000000000E+00 0.  1.
    9000005    2    1    2  501    0 -0.27675157171E+02  0.19537255005E+02 -0.65322957070E+03  0.65411420502E+03  0.29837087491E+01 0.  0.
         13    1    3    3    0    0 -0.12154896632E+02  0.99077506942E+01 -0.32143850977E+03  0.32182078957E+03  0.00000000000E+00 0.  1.
          1    1    3    3  501    0 -0.15520260539E+02  0.96295043103E+01 -0.33179106093E+03  0.33229341545E+03  0.00000000000E+00 0.  1.
         -3    1    1    2    0  502  0.27675157171E+02 -0.19537255005E+02 -0.34549969350E+03  0.34715653078E+03  0.00000000000E+00 0. -1.
<mgrwt>
<rscale>  1 0.30000000E+03</rscale>
<asrwt>0</asrwt>
<pdfrwt beam="1">  1       21 0.46208672E-02 0.30000000E+03</pdfrwt>
<pdfrwt beam="2">0</pdfrwt>
<totfact> 0.32941480E+04</totfact>
</mgrwt>
</event>
<event>
 6    1  0.1273846E-001  0.3000000E+03  0.7818608E-02  0.1093470E+00
         21   -1    0    0  501  502  0.00000000000E+00  0.00000000000E+00  0.12000196456E+01  0.12000196456E+01  0.00000000000E+00 0. -1.
         13   -1    0    0    0    0 -0.00000000000E+00 -0.00000000000E+00 -0.10000000000E+04  0.10000000000E+04  0.00000000000E+00 0.  1.
    9000005    2    1    2  501    0  0.27774238275E+02  0.13811422002E+02 -0.72093261520E+03  0.72160667869E+03  0.31936467912E+01 0.  0.
         13    1    3    3    0    0  0.77902846399E+01  0.26559278950E+01 -0.17078394765E+03  0.17098216066E+03  0.00000000000E+00 0.  1.
          3    1    3    3  501    0  0.19983953635E+02  0.11155494107E+02 -0.55014866756E+03  0.55062451804E+03  0.00000000000E+00 0.  1.
         -1    1    1    2    0  502 -0.27774238275E+02 -0.13811422002E+02 -0.27786736515E+03  0.27959334095E+03  0.00000000000E+00 0. -1.
<mgrwt>
<rscale>  1 0.30000000E+03</rscale>
<asrwt>0</asrwt>
<pdfrwt beam="1">  1       21 0.43637170E-02 0.30000000E+03</pdfrwt>
<pdfrwt beam="2">0</pdfrwt>
<totfact> 0.36301889E+04</totfact>
</mgrwt>
</event>
<event>
 6    1  0.1273846E-001  0.3000000E+03  0.7818608E-02  0.1093470E+00
         21   -1    0    0  501  502  0.00000000000E+00  0.00000000000E+00  0.28558788554E+01  0.28558788554E+01  0.00000000000E+00 0. -1.
         13   -1    0    0    0    0 -0.00000000000E+00 -0.00000000000E+00 -0.10000000000E+04  0.10000000000E+04  0.00000000000E+00 0.  1.
    9000005    2    1    2  501    0  0.36464713344E+02  0.38081352314E+02 -0.57772812258E+03  0.58013889959E+03  0.33903504684E+01 0.  0.
         13    1    3    3    0    0  0.32595606158E+02  0.35216262248E+02 -0.53065275537E+03  0.53281798529E+03  0.00000000000E+00 0.  1.
          3    1    3    3  501    0  0.38691071857E+01  0.28650900657E+01 -0.47075367214E+02  0.47320914296E+02  0.00000000000E+00 0.  1.
         -1    1    1    2    0  502 -0.36464713344E+02 -0.38081352314E+02 -0.41941599856E+03  0.42271697927E+03  0.00000000000E+00 0. -1.
<mgrwt>
<rscale>  1 0.30000000E+03</rscale>
<asrwt>0</asrwt>
<pdfrwt beam="1">  1       21 0.10385036E-01 0.30000000E+03</pdfrwt>
<pdfrwt beam="2">0</pdfrwt>
<totfact> 0.80409398E+03</totfact>
</mgrwt>
</event>
<event>
 6    1  0.1273846E-001  0.3000000E+03  0.7818608E-02  0.1093470E+00
         21   -1    0    0  501  502  0.00000000000E+00  0.00000000000E+00  0.41442975228E+01  0.41442975228E+01  0.00000000000E+00 0. -1.
         13   -1    0    0    0    0 -0.00000000000E+00 -0.00000000000E+00 -0.10000000000E+04  0.10000000000E+04  0.00000000000E+00 0.  1.
    9000005    2    1    2  501    0  0.32378464893E+02 -0.55231294363E+02 -0.45092644137E+03  0.45546701489E+03  0.40847595895E+01 0.  0.
         13    1    3    3    0    0  0.15922235360E+02 -0.27299565981E+02 -0.23709383664E+03  0.23919086783E+03  0.00000000000E+00 0.  1.
          1    1    3    3  501    0  0.16456229533E+02 -0.27931728382E+02 -0.21383260473E+03  0.21627614706E+03  0.00000000000E+00 0.  1.
         -3    1    1    2    0  502 -0.32378464893E+02  0.55231294363E+02 -0.54492926110E+03  0.54867728263E+03  0.00000000000E+00 0. -1.
<mgrwt>
<rscale>  1 0.30000000E+03</rscale>
<asrwt>0</asrwt>
<pdfrwt beam="1">  1       21 0.15070205E-01 0.30000000E+03</pdfrwt>
<pdfrwt beam="2">0</pdfrwt>
<totfact> 0.40825893E+03</totfact>
</mgrwt>
</event>
<event>
 6    1  0.1273846E-001  0.3000000E+03  0.7818608E-02  0.1093470E+00
         21   -1    0    0  501  502  0.00000000000E+00  0.00000000000E+00  0.21378326331E+01  0.21378326331E+01  0.00000000000E+00 0. -1.
         13   -1    0    0    0    0 -0.00000000000E+00 -0.00000000000E+00 -0.10000000000E+04  0.10000000000E+04  0.00000000000E+00 0.  1.
    9000005    2    1    2  501    0 -0.14302866062E+02  0.32400626190E+02 -0.82064575230E+03  0.82141696963E+03  0.34662190368E+01 0.  0.
         13    1    3    3    0    0 -0.12985333619E+02  0.28855631818E+02 -0.70578436284E+03  0.70649333557E+03  0.00000000000E+00 0.  1.
          1    1    3    3  501    0 -0.13175324435E+01  0.35449943719E+01 -0.11486138946E+03  0.11492363406E+03  0.00000000000E+00 0.  1.
         -3    1    1    2    0  502  0.14302866062E+02 -0.32400626190E+02 -0.17721641507E+03  0.18072086300E+03  0.00000000000E+00 0. -1.
<mgrwt>
<rscale>  1 0.30000000E+03</rscale>
<asrwt>0</asrwt>
<pdfrwt beam="1">  1       21 0.77739532E-02 0.30000000E+03</pdfrwt>
<pdfrwt beam="2">0</pdfrwt>
<totfact> 0.13432903E+04</totfact>
</mgrwt>
</event>
<event>
 6    1  0.1273846E-001  0.3000000E+03  0.7818608E-02  0.1093470E+00
         21   -1    0    0  501  502  0.00000000000E+00  0.00000000000E+00  0.25542035103E+01  0.25542035103E+01  0.00000000000E+00 0. -1.
         13   -1    0    0    0    0 -0.00000000000E+00 -0.00000000000E+00 -0.10000000000E+04  0.10000000000E+04  0.00000000000E+00 0.  1.
    9000005    2    1    2  501    0 -0.25318181442E+02 -0.32681556745E+02 -0.78661706878E+03  0.78771043029E+03  0.34949438913E+01 0.  0.
         13    1    3    3    0    0 -0.13508561998E+02 -0.19216790032E+02 -0.42054277984E+03  0.42119828578E+03  0.00000000000E+00 0.  1.
          1    1    3    3  501    0 -0.11809619444E+02 -0.13464766712E+02 -0.36607428893E+03  0.36651214451E+03  0.00000000000E+00 0.  1.
         -1    1    1    2    0  502  0.25318181442E+02  0.32681556745E+02 -0.21082872771E+03  0.21484377322E+03  0.00000000000E+00 0. -1.
<mgrwt>
<rscale>  1 0.30000000E+03</rscale>
<asrwt>0</asrwt>
<pdfrwt beam="1">  1       21 0.92880324E-02 0.30000000E+03</pdfrwt>
<pdfrwt beam="2">0</pdfrwt>
<totfact> 0.98139238E+03</totfact>
</mgrwt>
</event>
<event>
 6    1  0.1273846E-001  0.3000000E+03  0.7818608E-02  0.1093470E+00
         21   -1    0    0  501  502  0.00000000000E+00  0.00000000000E+00  0.19939704542E+01  0.19939704542E+01  0.00000000000E+00 0. -1.
         13   -1    0    0    0    0 -0.00000000000E+00 -0.00000000000E+00 -0.10000000000E+04  0.10000000000E+04  0.00000000000E+00 0.  1.
    9000005    2    1    2  501    0  0.43760267316E+02  0.58576987428E+01 -0.56737970860E+03  0.56911026560E+03  0.41817531094E+01 0.  0.
         13    1    3    3    0    0  0.13058498214E+02  0.21852541597E+01 -0.14709827531E+03  0.14769293250E+03  0.00000000000E+00 0.  1.
          1    1    3    3  501    0  0.30701769102E+02  0.36724445831E+01 -0.42028143329E+03  0.42141733311E+03  0.00000000000E+00 0.  1.
         -3    1    1    2    0  502 -0.43760267316E+02 -0.58576987428E+01 -0.43062632095E+03  0.43288370485E+03  0.00000000000E+00 0. -1.
<mgrwt>
<rscale>  1 0.30000000E+03</rscale>
<asrwt>0</asrwt>
<pdfrwt beam="1">  1       21 0.72508169E-02 0.30000000E+03</pdfrwt>
<pdfrwt beam="2">0</pdfrwt>
<totfact> 0.15175016E+04</totfact>
</mgrwt>
</event>
<event>
 6    1  0.1273846E-001  0.3000000E+03  0.7818608E-02  0.1093470E+00
         21   -1    0    0  501  502  0.00000000000E+00  0.00000000000E+00  0.13303835806E+01  0.13303835806E+01  0.00000000000E+00 0. -1.
         13   -1    0    0    0    0 -0.00000000000E+00 -0.00000000000E+00 -0.10000000000E+04  0.10000000000E+04  0.00000000000E+00 0.  1.
    9000005    2    1    2  501    0  0.34022161734E+02 -0.12583220367E+02 -0.47995040100E+03  0.48134435553E+03  0.49149013673E+01 0.  0.
         13    1    3    3    0    0  0.10387363817E+02 -0.36095097730E+01 -0.11755868159E+03  0.11807188279E+03  0.00000000000E+00 0.  1.
          3    1    3    3  501    0  0.23634797917E+02 -0.89737105939E+01 -0.36239171941E+03  0.36327247274E+03  0.00000000000E+00 0.  1.
         -3    1    1    2    0  502 -0.34022161734E+02  0.12583220367E+02 -0.51871921542E+03  0.51998602805E+03  0.00000000000E+00 0. -1.
<mgrwt>
<rscale>  1 0.30000000E+03</rscale>
<asrwt>0</asrwt>
<pdfrwt beam="1">  1       21 0.48377687E-02 0.30000000E+03</pdfrwt>
<pdfrwt beam="2">0</pdfrwt>
<totfact> 0.30469395E+04</totfact>
</mgrwt>
</event>
<event>
 6    1  0.1273846E-001  0.3000000E+03  0.7818608E-02  0.1093470E+00
         21   -1    0    0  501  502  0.00000000000E+00  0.00000000000E+00  0.16240461313E+01  0.16240461313E+01  0.00000000000E+00 0. -1.
         13   -1    0    0    0    0 -0.00000000000E+00 -0.00000000000E+00 -0.10000000000E+04  0.10000000000E+04  0.00000000000E+00 0.  1.
    9000005    2    1    2  501    0 -0.32172431095E+02 -0.14939404736E+01 -0.79972827655E+03  0.80038240808E+03  0.30636045260E+01 0.  0.
         13    1    3    3    0    0 -0.19215993332E+02  0.29227036206E+00 -0.49857221324E+03  0.49894247328E+03  0.00000000000E+00 0.  1.
          3    1    3    3  501    0 -0.12956437764E+02 -0.17862108356E+01 -0.30115606330E+03  0.30143993480E+03  0.00000000000E+00 0.  1.
         -3    1    1    2    0  502  0.32172431095E+02  0.14939404736E+01 -0.19864767732E+03  0.20124163805E+03  0.00000000000E+00 0. -1.
<mgrwt>
<rscale>  1 0.30000000E+03</rscale>
<asrwt>0</asrwt>
<pdfrwt beam="1">  1       21 0.59056347E-02 0.30000000E+03</pdfrwt>
<pdfrwt beam="2">0</pdfrwt>
<totfact> 0.21655530E+04</totfact>
</mgrwt>
</event>
<event>
 6    1  0.1273846E-001  0.3000000E+03  0.7818608E-02  0.1093470E+00
         21   -1    0    0  501  502  0.00000000000E+00  0.00000000000E+00  0.15061222914E+01  0.15061222914E+01  0.00000000000E+00 0. -1.
         13   -1    0    0    0    0 -0.00000000000E+00 -0.00000000000E+00 -0.10000000000E+04  0.10000000000E+04  0.00000000000E+00 0.  1.
    9000005    2    1    2  501    0  0.31736692330E+02 -0.21970229652E+02 -0.54030974523E+03  0.54169898024E+03  0.36408468791E+01 0.  0.
         13    1    3    3    0    0  0.13774300658E+02 -0.11402812913E+02 -0.23603879178E+03  0.23671515948E+03  0.00000000000E+00 0.  1.
          1    1    3    3  501    0  0.17962391672E+02 -0.10567416740E+02 -0.30427095345E+03  0.30498382076E+03  0.00000000000E+00 0.  1.
         -1    1    1    2    0  502 -0.31736692330E+02  0.21970229652E+02 -0.45818413248E+03  0.45980714205E+03  0.00000000000E+00 0. -1.
<mgrwt>
<rscale>  1 0.30000000E+03</rscale>
<asrwt>0</asrwt>
<pdfrwt beam="1">  1       21 0.54768199E-02 0.30000000E+03</pdfrwt>
<pdfrwt beam="2">0</pdfrwt>
<totfact> 0.24652004E+04</totfact>
</mgrwt>
</event>
<event>
 6    1  0.1273846E-001  0.3000000E+03  0.7818608E-02  0.1093470E+00
         21   -1    0    0  501  502  0.00000000000E+00  0.00000000000E+00  0.16359826349E+01  0.16359826349E+01  0.00000000000E+00 0. -1.
         13   -1    0    0    0    0 -0.00000000000E+00 -0.00000000000E+00 -0.10000000000E+04  0.10000000000E+04  0.00000000000E+00 0.  1.
    9000005    2    1    2  501    0  0.19511345400E+02 -0.25302241736E+02 -0.80491816140E+03  0.80556916946E+03  0.52482574556E+01 0.  0.
         13    1    3    3    0    0  0.17484258333E+02 -0.21871136877E+02 -0.65533174667E+03  0.65592967924E+03  0.00000000000E+00 0.  1.
          3    1    3    3  501    0  0.20270870674E+01 -0.34311048589E+01 -0.14958641473E+03  0.14963949022E+03  0.00000000000E+00 0.  1.
         -1    1    1    2    0  502 -0.19511345400E+02  0.25302241736E+02 -0.19344585597E+03  0.19606681317E+03  0.00000000000E+00 0. -1.
<mgrwt>
<rscale>  1 0.30000000E+03</rscale>
<asrwt>0</asrwt>
<pdfrwt beam="1">  1       21 0.59490403E-02 0.30000000E+03</pdfrwt>
<pdfrwt beam="2">0</pdfrwt>
<totfact> 0.21383877E+04</totfact>
</mgrwt>
</event>
<event>
 6    1  0.1273846E-001  0.3000000E+03  0.7818608E-02  0.1093470E+00
         21   -1    0    0  501  502  0.00000000000E+00  0.00000000000E+00  0.12044336258E+01  0.12044336258E+01  0.00000000000E+00 0. -1.
         13   -1    0    0    0    0 -0.00000000000E+00 -0.00000000000E+00 -0.10000000000E+04  0.10000000000E+04  0.00000000000E+00 0.  1.
    9000005    2    1    2  501    0 -0.19420228077E+02 -0.24538736910E+02 -0.70876639782E+03  0.70949188080E+03  0.70446692973E+01 0.  0.
         13    1    3    3    0    0  0.20192566747E+00 -0.85248811361E+00 -0.50149240743E+02  0.50156892418E+02  0.00000000000E+00 0.  1.
          3    1    3    3  501    0 -0.19622153744E+02 -0.23686248797E+02 -0.65861715708E+03  0.65933498838E+03  0.00000000000E+00 0.  1.
         -3    1    1    2    0  502  0.19420228077E+02  0.24538736910E+02 -0.29002916855E+03  0.29171255283E+03  0.00000000000E+00 0. -1.
<mgrwt>
<rscale>  1 0.30000000E+03</rscale>
<asrwt>0</asrwt>
<pdfrwt beam="1">  1       21 0.43797679E-02 0.30000000E+03</pdfrwt>
<pdfrwt beam="2">0</pdfrwt>
<totfact> 0.36076919E+04</totfact>
</mgrwt>
</event>
<event>
 6    1  0.1273846E-001  0.3000000E+03  0.7818608E-02  0.1093470E+00
         21   -1    0    0  501  502  0.00000000000E+00  0.00000000000E+00  0.21547937892E+01  0.21547937892E+01  0.00000000000E+00 0. -1.
         13   -1    0    0    0    0 -0.00000000000E+00 -0.00000000000E+00 -0.10000000000E+04  0.10000000000E+04  0.00000000000E+00 0.  1.
    9000005    2    1    2  501    0  0.30918779772E+02  0.17810619827E+02 -0.81905607210E+03  0.81983983665E+03  0.33644301454E+01 0.  0.
         13    1    3    3    0    0  0.24100274406E+02  0.15428187385E+02 -0.65075468041E+03  0.65138353239E+03  0.00000000000E+00 0.  1.
          1    1    3    3  501    0  0.68185053659E+01  0.23824324415E+01 -0.16830139169E+03  0.16845630426E+03  0.00000000000E+00 0.  1.
         -3    1    1    2    0  502 -0.30918779772E+02 -0.17810619827E+02 -0.17878913411E+03  0.18231495714E+03  0.00000000000E+00 0. -1.
<mgrwt>
<rscale>  1 0.30000000E+03</rscale>
<asrwt>0</asrwt>
<pdfrwt beam="1">  1       21 0.78356303E-02 0.30000000E+03</pdfrwt>
<pdfrwt beam="2">0</pdfrwt>
<totfact> 0.13247981E+04</totfact>
</mgrwt>
</event>
<event>
 6    1  0.1273846E-001  0.3000000E+03  0.7818608E-02  0.1093470E+00
         21   -1    0    0  501  502  0.00000000000E+00  0.00000000000E+00  0.21698202860E+01  0.21698202860E+01  0.00000000000E+00 0. -1.
         13   -1    0    0    0    0 -0.00000000000E+00 -0.00000000000E+00 -0.10000000000E+04  0.10000000000E+04  0.00000000000E+00 0.  1.
    9000005    2    1    2  501    0  0.37706363469E+02  0.24052807940E+02 -0.63700061644E+03  0.63857900474E+03  0.36128293406E+01 0.  0.
         13    1    3    3    0    0  0.19572949853E+02  0.11096034089E+02 -0.30043782456E+03  0.30127912102E+03  0.00000000000E+00 0.  1.
          3    1    3    3  501    0  0.18133413616E+02  0.12956773852E+02 -0.33656279187E+03  0.33729988371E+03  0.00000000000E+00 0.  1.
         -1    1    1    2    0  502 -0.37706363469E+02 -0.24052807940E+02 -0.36082956328E+03  0.36359081555E+03  0.00000000000E+00 0. -1.
<mgrwt>
<rscale>  1 0.30000000E+03</rscale>
<asrwt>0</asrwt>
<pdfrwt beam="1">  1       21 0.78902722E-02 0.30000000E+03</pdfrwt>
<pdfrwt beam="2">0</pdfrwt>
<totfact> 0.13087408E+04</totfact>
</mgrwt>
</event>
<event>
 6    1  0.1273846E-001  0.3000000E+03  0.7818608E-02  0.1093470E+00
         21   -1    0    0  501  502  0.00000000000E+00  0.00000000000E+00  0.10592479220E+01  0.10592479220E+01  0.00000000000E+00 0. -1.
         13   -1    0    0    0    0 -0.00000000000E+00 -0.00000000000E+00 -0.10000000000E+04  0.10000000000E+04  0.00000000000E+00 0.  1.
    9000005    2    1    2  501    0 -0.68513698842E+01  0.31113677942E+02 -0.57945135200E+03  0.58036178061E+03  0.63972521016E+01 0.  0.
         13    1    3    3    0    0 -0.25002853543E+01  0.23051857381E+02 -0.43907934856E+03  0.43969115739E+03  0.00000000000E+00 0.  1.
          3    1    3    3  501    0 -0.43510845299E+01  0.80618205615E+01 -0.14037200345E+03  0.14067062323E+03  0.00000000000E+00 0.  1.
         -3    1    1    2    0  502  0.68513698842E+01 -0.31113677942E+02 -0.41948940007E+03  0.42069746731E+03  0.00000000000E+00 0. -1.
<mgrwt>
<rscale>  1 0.30000000E+03</rscale>
<asrwt>0</asrwt>
<pdfrwt beam="1">  1       21 0.38518187E-02 0.30000000E+03</pdfrwt>
<pdfrwt beam="2">0</pdfrwt>
<totfact> 0.44804511E+04</totfact>
</mgrwt>
</event>
<event>
 6    1  0.1273846E-001  0.3000000E+03  0.7818608E-02  0.1093470E+00
         21   -1    0    0  501  502  0.00000000000E+00  0.00000000000E+00  0.11020631334E+01  0.11020631334E+01  0.00000000000E+00 0. -1.
         13   -1    0    0    0    0 -0.00000000000E+00 -0.00000000000E+00 -0.10000000000E+04  0.10000000000E+04  0.00000000000E+00 0.  1.
    9000005    2    1    2  501    0  0.12918161399E+02 -0.28679722236E+02 -0.64078622075E+03  0.64161158123E+03  0.83087363459E+01 0.  0.
         13    1    3    3    0    0  0.54784739585E+01 -0.16397250675E+02 -0.42248177124E+03  0.42283534684E+03  0.00000000000E+00 0.  1.
          3    1    3    3  501    0  0.74396874404E+01 -0.12282471561E+02 -0.21830444951E+03  0.21877623438E+03  0.00000000000E+00 0.  1.
         -3    1    1    2    0  502 -0.12918161399E+02  0.28679722236E+02 -0.35811171612E+03  0.35949048191E+03  0.00000000000E+00 0. -1.
<mgrwt>
<rscale>  1 0.30000000E+03</rscale>
<asrwt>0</asrwt>
<pdfrwt beam="1">  1       21 0.40075108E-02 0.30000000E+03</pdfrwt>
<pdfrwt beam="2">0</pdfrwt>
<totfact> 0.41914694E+04</totfact>
</mgrwt>
</event>
<event>
 6    1  0.1273846E-001  0.3000000E+03  0.7818608E-02  0.1093470E+00
         21   -1    0    0  501  502  0.00000000000E+00  0.00000000000E+00  0.24496255185E+01  0.24496255185E+01  0.00000000000E+00 0. -1.
         13   -1    0    0    0    0 -0.00000000000E+00 -0.00000000000E+00 -0.10000000000E+04  0.10000000000E+04  0.00000000000E+00 0.  1.
    9000005    2    1    2  501    0 -0.29677200060E+02  0.90014412293E+01 -0.88919038901E+03  0.88973916194E+03  0.38034514664E+01 0.  0.
         13    1    3    3    0    0 -0.25266482951E+02  0.86137133284E+01 -0.78780682584E+03  0.78825895876E+03  0.00000000000E+00 0.  1.
          3    1    3    3  501    0 -0.44107171094E+01  0.38772790091E+00 -0.10138356317E+03  0.10148020319E+03  0.00000000000E+00 0.  1.
         -3    1    1    2    0  502  0.29677200060E+02 -0.90014412293E+01 -0.10835998547E+03  0.11271046357E+03  0.00000000000E+00 0. -1.
<mgrwt>
<rscale>  1 0.30000000E+03</rscale>
<asrwt>0</asrwt>
<pdfrwt beam="1">  1       21 0.89077479E-02 0.30000000E+03</pdfrwt>
<pdfrwt beam="2">0</pdfrwt>
<totfact> 0.10569177E+04</totfact>
</mgrwt>
</event>
<event>
 6    1  0.1273846E-001  0.3000000E+03  0.7818608E-02  0.1093470E+00
         21   -1    0    0  501  502  0.00000000000E+00  0.00000000000E+00  0.27963342652E+01  0.27963342652E+01  0.00000000000E+00 0. -1.
         13   -1    0    0    0    0 -0.00000000000E+00 -0.00000000000E+00 -0.10000000000E+04  0.10000000000E+04  0.00000000000E+00 0.  1.
    9000005    2    1    2  501    0 -0.20423586870E+02  0.38478980741E+02 -0.78242706759E+03  0.78364628984E+03  0.34112502586E+01 0.  0.
         13    1    3    3    0    0 -0.57286939365E+01  0.89234538097E+01 -0.17000715772E+03  0.17033754618E+03  0.00000000000E+00 0.  1.
          1    1    3    3  501    0 -0.14694892933E+02  0.29555526931E+02 -0.61241990987E+03  0.61330874366E+03  0.00000000000E+00 0.  1.
         -1    1    1    2    0  502  0.20423586870E+02 -0.38478980741E+02 -0.21477659815E+03  0.21915004443E+03  0.00000000000E+00 0. -1.
<mgrwt>
<rscale>  1 0.30000000E+03</rscale>
<asrwt>0</asrwt>
<pdfrwt beam="1">  1       21 0.10168510E-01 0.30000000E+03</pdfrwt>
<pdfrwt beam="2">0</pdfrwt>
<totfact> 0.83499849E+03</totfact>
</mgrwt>
</event>
<event>
 6    1  0.1273846E-001  0.3000000E+03  0.7818608E-02  0.1093470E+00
         21   -1    0    0  501  502  0.00000000000E+00  0.00000000000E+00  0.79579079723E+01  0.79579079723E+01  0.00000000000E+00 0. -1.
         13   -1    0    0    0    0 -0.00000000000E+00 -0.00000000000E+00 -0.10000000000E+04  0.10000000000E+04  0.00000000000E+00 0.  1.
    9000005    2    1    2  501    0 -0.16528596169E+02  0.30294917236E+02 -0.96072710819E+03  0.96135742821E+03  0.45334156084E+01 0.  0.
         13    1    3    3    0    0 -0.56839895628E+01  0.66030988476E+01 -0.26090008683E+03  0.26104552086E+03  0.00000000000E+00 0.  1.
          1    1    3    3  501    0 -0.10844606606E+02  0.23691818388E+02 -0.69982702135E+03  0.70031190734E+03  0.00000000000E+00 0.  1.
         -1    1    1    2    0  502  0.16528596169E+02 -0.30294917236E+02 -0.31314983840E+02  0.46600479767E+02  0.00000000000E+00 0. -1.
<mgrwt>
<rscale>  1 0.30000000E+03</rscale>
<asrwt>0</asrwt>
<pdfrwt beam="1">  1       21 0.28937908E-01 0.30000000E+03</pdfrwt>
<pdfrwt beam="2">0</pdfrwt>
<totfact> 0.11683647E+03</totfact>
</mgrwt>
</event>
<event>
 6    1  0.1273846E-001  0.3000000E+03  0.7818608E-02  0.1093470E+00
         21   -1    0    0  501  502  0.00000000000E+00  0.00000000000E+00  0.20206782013E+01  0.20206782013E+01  0.00000000000E+00 0. -1.
         13   -1    0    0    0    0 -0.00000000000E+00 -0.00000000000E+00 -0.10000000000E+04  0.10000000000E+04  0.00000000000E+00 0.  1.
    9000005    2    1    2  501    0  0.35941621984E+02  0.25057796855E+02 -0.60794845846E+03  0.60953657950E+03  0.37175575862E+01 0.  0.
         13    1    3    3    0    0  0.26003039827E+02  0.17547499868E+02 -0.45658795819E+03  0.45766432721E+03  0.00000000000E+00 0.  1.
          1    1    3    3  501    0  0.99385821574E+01  0.75102969877E+01 -0.15136050026E+03  0.15187225229E+03  0.00000000000E+00 0.  1.
         -1    1    1    2    0  502 -0.35941621984E+02 -0.25057796855E+02 -0.39003086334E+03  0.39248409870E+03  0.00000000000E+00 0. -1.
<mgrwt>
<rscale>  1 0.30000000E+03</rscale>
<asrwt>0</asrwt>
<pdfrwt beam="1">  1       21 0.73479362E-02 0.30000000E+03</pdfrwt>
<pdfrwt beam="2">0</pdfrwt>
<totfact> 0.14826397E+04</totfact>
</mgrwt>
</event>
<event>
 6    1  0.1273846E-001  0.3000000E+03  0.7818608E-02  0.1093470E+00
         21   -1    0    0  501  502  0.00000000000E+00  0.00000000000E+00  0.15669654362E+01  0.15669654362E+01  0.00000000000E+00 0. -1.
         13   -1    0    0    0    0 -0.00000000000E+00 -0.00000000000E+00 -0.10000000000E+04  0.10000000000E+04  0.00000000000E+00 0.  1.
    9000005    2    1    2  501    0  0.39224341336E+02 -0.42543209116E+01 -0.53471306129E+03  0.53617158319E+03  0.22935802759E+01 0.  0.
         13    1    3    3    0    0  0.35931238465E+02 -0.32496353388E+01 -0.48854551087E+03  0.48987583143E+03  0.00000000000E+00 0.  1.
          3    1    3    3  501    0  0.32931028710E+01 -0.10046855728E+01 -0.46167550421E+02  0.46295751765E+02  0.00000000000E+00 0.  1.
         -3    1    1    2    0  502 -0.39224341336E+02  0.42543209116E+01 -0.46371997327E+03  0.46539538224E+03  0.00000000000E+00 0. -1.
<mgrwt>
<rscale>  1 0.30000000E+03</rscale>
<asrwt>0</asrwt>
<pdfrwt beam="1">  1       21 0.56980681E-02 0.30000000E+03</pdfrwt>
<pdfrwt beam="2">0</pdfrwt>
<totfact> 0.23031681E+04</totfact>
</mgrwt>
</event>
<event>
 6    1  0.1273846E-001  0.3000000E+03  0.7818608E-02  0.1093470E+00
         21   -1    0    0  501  502  0.00000000000E+00  0.00000000000E+00  0.29787780046E+01  0.29787780046E+01  0.00000000000E+00 0. -1.
         13   -1    0    0    0    0 -0.00000000000E+00 -0.00000000000E+00 -0.10000000000E+04  0.10000000000E+04  0.00000000000E+00 0.  1.
    9000005    2    1    2  501    0 -0.37188689155E+02 -0.29878400156E+02 -0.74064039024E+03  0.74219755113E+03  0.57706028018E+01 0.  0.
         13    1    3    3    0    0 -0.36986504402E+02 -0.28601892523E+02 -0.72227841395E+03  0.72379014709E+03  0.00000000000E+00 0.  1.
          3    1    3    3  501    0 -0.20218475251E+00 -0.12765076331E+01 -0.18361976289E+02  0.18407404045E+02  0.00000000000E+00 0.  1.
         -1    1    1    2    0  502  0.37188689155E+02  0.29878400156E+02 -0.25638083176E+03  0.26078122687E+03  0.00000000000E+00 0. -1.
<mgrwt>
<rscale>  1 0.30000000E+03</rscale>
<asrwt>0</asrwt>
<pdfrwt beam="1">  1       21 0.10831943E-01 0.30000000E+03</pdfrwt>
<pdfrwt beam="2">0</pdfrwt>
<totfact> 0.74555718E+03</totfact>
</mgrwt>
</event>
<event>
 6    1  0.1273846E-001  0.3000000E+03  0.7818608E-02  0.1093470E+00
         21   -1    0    0  501  502  0.00000000000E+00  0.00000000000E+00  0.64271720626E+01  0.64271720626E+01  0.00000000000E+00 0. -1.
         13   -1    0    0    0    0 -0.00000000000E+00 -0.00000000000E+00 -0.10000000000E+04  0.10000000000E+04  0.00000000000E+00 0.  1.
    9000005    2    1    2  501    0  0.25379014505E+02  0.50764133528E+02 -0.85208927289E+03  0.85398476334E+03  0.35714705970E+01 0.  0.
         13    1    3    3    0    0  0.21314523470E+02  0.43208971391E+02 -0.70331881843E+03  0.70496715134E+03  0.00000000000E+00 0.  1.
          3    1    3    3  501    0  0.40644910349E+01  0.75551621370E+01 -0.14877045446E+03  0.14901761199E+03  0.00000000000E+00 0.  1.
         -1    1    1    2    0  502 -0.25379014505E+02 -0.50764133528E+02 -0.14148355504E+03  0.15244240873E+03  0.00000000000E+00 0. -1.
<mgrwt>
<rscale>  1 0.30000000E+03</rscale>
<asrwt>0</asrwt>
<pdfrwt beam="1">  1       21 0.23371584E-01 0.30000000E+03</pdfrwt>
<pdfrwt beam="2">0</pdfrwt>
<totfact> 0.17782156E+03</totfact>
</mgrwt>
</event>
<event>
 6    1  0.1273846E-001  0.3000000E+03  0.7818608E-02  0.1093470E+00
         21   -1    0    0  501  502  0.00000000000E+00  0.00000000000E+00  0.41195982898E+01  0.41195982898E+01  0.00000000000E+00 0. -1.
         13   -1    0    0    0    0 -0.00000000000E+00 -0.00000000000E+00 -0.10000000000E+04  0.10000000000E+04  0.00000000000E+00 0.  1.
    9000005    2    1    2  501    0 -0.28445762982E+02  0.17639457986E+02 -0.92614974308E+03  0.92677183386E+03  0.56897728565E+01 0.  0.
         13    1    3    3    0    0 -0.21851695499E+02  0.11034757213E+02 -0.70624062373E+03  0.70666475861E+03  0.00000000000E+00 0.  1.
          3    1    3    3  501    0 -0.65940674828E+01  0.66047007731E+01 -0.21990911935E+03  0.22010707525E+03  0.00000000000E+00 0.  1.
         -3    1    1    2    0  502  0.28445762982E+02 -0.17639457986E+02 -0.69730658630E+02  0.77347764432E+02  0.00000000000E+00 0. -1.
<mgrwt>
<rscale>  1 0.30000000E+03</rscale>
<asrwt>0</asrwt>
<pdfrwt beam="1">  1       21 0.14980389E-01 0.30000000E+03</pdfrwt>
<pdfrwt beam="2">0</pdfrwt>
<totfact> 0.41280189E+03</totfact>
</mgrwt>
</event>
<event>
 6    1  0.1273846E-001  0.3000000E+03  0.7818608E-02  0.1093470E+00
         21   -1    0    0  501  502  0.00000000000E+00  0.00000000000E+00  0.11453905424E+01  0.11453905424E+01  0.00000000000E+00 0. -1.
         13   -1    0    0    0    0 -0.00000000000E+00 -0.00000000000E+00 -0.10000000000E+04  0.10000000000E+04  0.00000000000E+00 0.  1.
    9000005    2    1    2  501    0 -0.29019749482E+02  0.16960169019E+02 -0.55468898304E+03  0.55570976458E+03  0.19186820861E+01 0.  0.
         13    1    3    3    0    0 -0.17509734605E+02  0.10345363432E+02 -0.32002816701E+03  0.32067373611E+03  0.00000000000E+00 0.  1.
          1    1    3    3  501    0 -0.11510014878E+02  0.66148055877E+01 -0.23466081603E+03  0.23503602846E+03  0.00000000000E+00 0.  1.
         -1    1    1    2    0  502  0.29019749482E+02 -0.16960169019E+02 -0.44416562641E+03  0.44543562597E+03  0.00000000000E+00 0. -1.
<mgrwt>
<rscale>  1 0.30000000E+03</rscale>
<asrwt>0</asrwt>
<pdfrwt beam="1">  1       21 0.41650653E-02 0.30000000E+03</pdfrwt>
<pdfrwt beam="2">0</pdfrwt>
<totfact> 0.39276403E+04</totfact>
</mgrwt>
</event>
<event>
 6    1  0.1273846E-001  0.3000000E+03  0.7818608E-02  0.1093470E+00
         21   -1    0    0  501  502  0.00000000000E+00  0.00000000000E+00  0.14611567644E+01  0.14611567644E+01  0.00000000000E+00 0. -1.
         13   -1    0    0    0    0 -0.00000000000E+00 -0.00000000000E+00 -0.10000000000E+04  0.10000000000E+04  0.00000000000E+00 0.  1.
    9000005    2    1    2  501    0  0.35259521943E+02 -0.13316661350E+02 -0.42458876793E+03  0.42627487711E+03  0.37525521184E+01 0.  0.
         13    1    3    3    0    0  0.56532892085E+01 -0.31348421130E+01 -0.85366109676E+02  0.85610511008E+02  0.00000000000E+00 0.  1.
          3    1    3    3  501    0  0.29606232734E+02 -0.10181819237E+02 -0.33922265826E+03  0.34066436610E+03  0.00000000000E+00 0.  1.
         -3    1    1    2    0  502 -0.35259521943E+02  0.13316661350E+02 -0.57395007530E+03  0.57518627965E+03  0.00000000000E+00 0. -1.
<mgrwt>
<rscale>  1 0.30000000E+03</rscale>
<asrwt>0</asrwt>
<pdfrwt beam="1">  1       21 0.53133085E-02 0.30000000E+03</pdfrwt>
<pdfrwt beam="2">0</pdfrwt>
<totfact> 0.25965243E+04</totfact>
</mgrwt>
</event>
<event>
 6    1  0.1273846E-001  0.3000000E+03  0.7818608E-02  0.1093470E+00
         21   -1    0    0  501  502  0.00000000000E+00  0.00000000000E+00  0.39174574076E+01  0.39174574076E+01  0.00000000000E+00 0. -1.
         13   -1    0    0    0    0 -0.00000000000E+00 -0.00000000000E+00 -0.10000000000E+04  0.10000000000E+04  0.00000000000E+00 0.  1.
    9000005    2    1    2  501    0  0.31143424652E+02  0.15499636727E+02 -0.91523975073E+03  0.91590774979E+03  0.36129189509E+01 0.  0.
         13    1    3    3    0    0  0.10183412813E+02  0.33814693860E+01 -0.26299050309E+03  0.26320931015E+03  0.00000000000E+00 0.  1.
          3    1    3    3  501    0  0.20960011839E+02  0.12118167341E+02 -0.65224924763E+03  0.65269843964E+03  0.00000000000E+00 0.  1.
         -3    1    1    2    0  502 -0.31143424652E+02 -0.15499636727E+02 -0.80842791865E+02  0.88009707614E+02  0.00000000000E+00 0. -1.
<mgrwt>
<rscale>  1 0.30000000E+03</rscale>
<asrwt>0</asrwt>
<pdfrwt beam="1">  1       21 0.14245330E-01 0.30000000E+03</pdfrwt>
<pdfrwt beam="2">0</pdfrwt>
<totfact> 0.45296437E+03</totfact>
</mgrwt>
</event>
<event>
 6    1  0.1273846E-001  0.3000000E+03  0.7818608E-02  0.1093470E+00
         21   -1    0    0  501  502  0.00000000000E+00  0.00000000000E+00  0.22891393599E+01  0.22891393599E+01  0.00000000000E+00 0. -1.
         13   -1    0    0    0    0 -0.00000000000E+00 -0.00000000000E+00 -0.10000000000E+04  0.10000000000E+04  0.00000000000E+00 0.  1.
    9000005    2    1    2  501    0 -0.25814398254E+02 -0.29740493817E+02 -0.78303540143E+03  0.78403141804E+03  0.31534818533E+01 0.  0.
         13    1    3    3    0    0 -0.72518176081E+01 -0.84525359826E+01 -0.19434716842E+03  0.19466601166E+03  0.00000000000E+00 0.  1.
          3    1    3    3  501    0 -0.18562580646E+02 -0.21287957835E+02 -0.58868823301E+03  0.58936540638E+03  0.00000000000E+00 0.  1.
         -3    1    1    2    0  502  0.25814398254E+02  0.29740493817E+02 -0.21467545921E+03  0.21825772132E+03  0.00000000000E+00 0. -1.
<mgrwt>
<rscale>  1 0.30000000E+03</rscale>
<asrwt>0</asrwt>
<pdfrwt beam="1">  1       21 0.83241607E-02 0.30000000E+03</pdfrwt>
<pdfrwt beam="2">0</pdfrwt>
<totfact> 0.11912048E+04</totfact>
</mgrwt>
</event>
<event>
 6    1  0.1273846E-001  0.3000000E+03  0.7818608E-02  0.1093470E+00
         21   -1    0    0  501  502  0.00000000000E+00  0.00000000000E+00  0.11054510037E+01  0.11054510037E+01  0.00000000000E+00 0. -1.
         13   -1    0    0    0    0 -0.00000000000E+00 -0.00000000000E+00 -0.10000000000E+04  0.10000000000E+04  0.00000000000E+00 0.  1.
    9000005    2    1    2  501    0  0.14488436530E+02  0.29650693582E+02 -0.54139633474E+03  0.54241852676E+03  0.43345681926E+01 0.  0.
         13    1    3    3    0    0  0.94663216668E+01  0.15748219157E+02 -0.27613423948E+03  0.27674489311E+03  0.00000000000E+00 0.  1.
          3    1    3    3  501    0  0.50221148633E+01  0.13902474425E+02 -0.26526209526E+03  0.26567363365E+03  0.00000000000E+00 0.  1.
         -1    1    1    2    0  502 -0.14488436530E+02 -0.29650693582E+02 -0.45749821426E+03  0.45868692424E+03  0.00000000000E+00 0. -1.
<mgrwt>
<rscale>  1 0.30000000E+03</rscale>
<asrwt>0</asrwt>
<pdfrwt beam="1">  1       21 0.40198303E-02 0.30000000E+03</pdfrwt>
<pdfrwt beam="2">0</pdfrwt>
<totfact> 0.41698560E+04</totfact>
</mgrwt>
</event>
<event>
 6    1  0.1273846E-001  0.3000000E+03  0.7818608E-02  0.1093470E+00
         21   -1    0    0  501  502  0.00000000000E+00  0.00000000000E+00  0.28169589992E+01  0.28169589992E+01  0.00000000000E+00 0. -1.
         13   -1    0    0    0    0 -0.00000000000E+00 -0.00000000000E+00 -0.10000000000E+04  0.10000000000E+04  0.00000000000E+00 0.  1.
    9000005    2    1    2  501    0 -0.28619472136E+02  0.24838506221E+02 -0.84946239121E+03  0.85031313625E+03  0.31701787456E+01 0.  0.
         13    1    3    3    0    0 -0.13093906207E+00  0.24942307612E+00 -0.14939260322E+02  0.14941916071E+02  0.00000000000E+00 0.  1.
          1    1    3    3  501    0 -0.28488533074E+02  0.24589083145E+02 -0.83452313089E+03  0.83537122018E+03  0.00000000000E+00 0.  1.
         -3    1    1    2    0  502  0.28619472136E+02 -0.24838506221E+02 -0.14772064979E+03  0.15250382274E+03  0.00000000000E+00 0. -1.
<mgrwt>
<rscale>  1 0.30000000E+03</rscale>
<asrwt>0</asrwt>
<pdfrwt beam="1">  1       21 0.10243509E-01 0.30000000E+03</pdfrwt>
<pdfrwt beam="2">0</pdfrwt>
<totfact> 0.82409238E+03</totfact>
</mgrwt>
</event>
<event>
 6    1  0.1273846E-001  0.3000000E+03  0.7818608E-02  0.1093470E+00
         21   -1    0    0  501  502  0.00000000000E+00  0.00000000000E+00  0.14583513233E+01  0.14583513233E+01  0.00000000000E+00 0. -1.
         13   -1    0    0    0    0 -0.00000000000E+00 -0.00000000000E+00 -0.10000000000E+04  0.10000000000E+04  0.00000000000E+00 0.  1.
    9000005    2    1    2  501    0 -0.36232655889E+02  0.54789277861E+01 -0.63326877696E+03  0.63435197054E+03  0.55004225685E+01 0.  0.
         13    1    3    3    0    0 -0.21110046255E+02  0.35216465831E+01 -0.32254651727E+03  0.32325576847E+03  0.00000000000E+00 0.  1.
          3    1    3    3  501    0 -0.15122609633E+02  0.19572812030E+01 -0.31072225969E+03  0.31109620206E+03  0.00000000000E+00 0.  1.
         -1    1    1    2    0  502  0.36232655889E+02 -0.54789277861E+01 -0.36527287172E+03  0.36710638079E+03  0.00000000000E+00 0. -1.
<mgrwt>
<rscale>  1 0.30000000E+03</rscale>
<asrwt>0</asrwt>
<pdfrwt beam="1">  1       21 0.53031069E-02 0.30000000E+03</pdfrwt>
<pdfrwt beam="2">0</pdfrwt>
<totfact> 0.26050740E+04</totfact>
</mgrwt>
</event>
<event>
 6    1  0.1273846E-001  0.3000000E+03  0.7818608E-02  0.1093470E+00
         21   -1    0    0  501  502  0.00000000000E+00  0.00000000000E+00  0.18990682413E+01  0.18990682413E+01  0.00000000000E+00 0. -1.
         13   -1    0    0    0    0 -0.00000000000E+00 -0.00000000000E+00 -0.10000000000E+04  0.10000000000E+04  0.00000000000E+00 0.  1.
    9000005    2    1    2  501    0  0.35508870741E+02  0.17050004257E+02 -0.71220482947E+03  0.71330218010E+03  0.35634891530E+01 0.  0.
         13    1    3    3    0    0  0.11609410222E+02  0.46588082327E+01 -0.25269841798E+03  0.25300785235E+03  0.00000000000E+00 0.  1.
          3    1    3    3  501    0  0.23899460519E+02  0.12391196024E+02 -0.45950641149E+03  0.46029432774E+03  0.00000000000E+00 0.  1.
         -3    1    1    2    0  502 -0.35508870741E+02 -0.17050004257E+02 -0.28589610228E+03  0.28859688815E+03  0.00000000000E+00 0. -1.
<mgrwt>
<rscale>  1 0.30000000E+03</rscale>
<asrwt>0</asrwt>
<pdfrwt beam="1">  1       21 0.69057173E-02 0.30000000E+03</pdfrwt>
<pdfrwt beam="2">0</pdfrwt>
<totfact> 0.16520395E+04</totfact>
</mgrwt>
</event>
<event>
 6    1  0.1273846E-001  0.3000000E+03  0.7818608E-02  0.1093470E+00
         21   -1    0    0  501  502  0.00000000000E+00  0.00000000000E+00  0.14548242690E+01  0.14548242690E+01  0.00000000000E+00 0. -1.
         13   -1    0    0    0    0 -0.00000000000E+00 -0.00000000000E+00 -0.10000000000E+04  0.10000000000E+04  0.00000000000E+00 0.  1.
    9000005    2    1    2  501    0  0.13290991698E+02 -0.35474499043E+02 -0.45070796199E+03  0.45230939425E+03  0.33212332005E+01 0.  0.
         13    1    3    3    0    0  0.10416094538E+02 -0.27791893183E+02 -0.33583953569E+03  0.33714845111E+03  0.00000000000E+00 0.  1.
          3    1    3    3  501    0  0.28748971607E+01 -0.76826058599E+01 -0.11486842629E+03  0.11516094314E+03  0.00000000000E+00 0.  1.
         -1    1    1    2    0  502 -0.13290991698E+02  0.35474499043E+02 -0.54783721375E+03  0.54914543002E+03  0.00000000000E+00 0. -1.
<mgrwt>
<rscale>  1 0.30000000E+03</rscale>
<asrwt>0</asrwt>
<pdfrwt beam="1">  1       21 0.52902812E-02 0.30000000E+03</pdfrwt>
<pdfrwt beam="2">0</pdfrwt>
<totfact> 0.26158847E+04</totfact>
</mgrwt>
</event>
<event>
 6    1  0.1273846E-001  0.3000000E+03  0.7818608E-02  0.1093470E+00
         21   -1    0    0  501  502  0.00000000000E+00  0.00000000000E+00  0.12725967863E+01  0.12725967863E+01  0.00000000000E+00 0. -1.
         13   -1    0    0    0    0 -0.00000000000E+00 -0.00000000000E+00 -0.10000000000E+04  0.10000000000E+04  0.00000000000E+00 0.  1.
    9000005    2    1    2  501    0  0.12191025170E+02  0.28542438825E+02 -0.74541719315E+03  0.74606806228E+03  0.27330945379E+01 0.  0.
         13    1    3    3    0    0  0.11485826163E+02  0.26914418687E+02 -0.68486375769E+03  0.68548864085E+03  0.00000000000E+00 0.  1.
          3    1    3    3  501    0  0.70519900740E+00  0.16280201374E+01 -0.60553435464E+02  0.60579421437E+02  0.00000000000E+00 0.  1.
         -3    1    1    2    0  502 -0.12191025170E+02 -0.28542438825E+02 -0.25331021006E+03  0.25520453450E+03  0.00000000000E+00 0. -1.
<mgrwt>
<rscale>  1 0.30000000E+03</rscale>
<asrwt>0</asrwt>
<pdfrwt beam="1">  1       21 0.46276344E-02 0.30000000E+03</pdfrwt>
<pdfrwt beam="2">0</pdfrwt>
<totfact> 0.32859665E+04</totfact>
</mgrwt>
</event>
<event>
 6    1  0.1273846E-001  0.3000000E+03  0.7818608E-02  0.1093470E+00
         21   -1    0    0  501  502  0.00000000000E+00  0.00000000000E+00  0.16037494213E+01  0.16037494213E+01  0.00000000000E+00 0. -1.
         13   -1    0    0    0    0 -0.00000000000E+00 -0.00000000000E+00 -0.10000000000E+04  0.10000000000E+04  0.00000000000E+00 0.  1.
    9000005    2    1    2  501    0  0.24606206360E+01 -0.37098482323E+02 -0.68175037427E+03  0.68278254086E+03  0.51061965006E+01 0.  0.
         13    1    3    3    0    0  0.31287811622E+01 -0.12377205391E+02 -0.21891063781E+03  0.21928258442E+03  0.00000000000E+00 0.  1.
          1    1    3    3  501    0 -0.66816052625E+00 -0.24721276932E+02 -0.46283973646E+03  0.46349995644E+03  0.00000000000E+00 0.  1.
         -1    1    1    2    0  502 -0.24606206360E+01  0.37098482323E+02 -0.31664587631E+03  0.31882120856E+03  0.00000000000E+00 0. -1.
<mgrwt>
<rscale>  1 0.30000000E+03</rscale>
<asrwt>0</asrwt>
<pdfrwt beam="1">  1       21 0.58318284E-02 0.30000000E+03</pdfrwt>
<pdfrwt beam="2">0</pdfrwt>
<totfact> 0.22129968E+04</totfact>
</mgrwt>
</event>
<event>
 6    1  0.1273846E-001  0.3000000E+03  0.7818608E-02  0.1093470E+00
         21   -1    0    0  501  502  0.00000000000E+00  0.00000000000E+00  0.13869189978E+01  0.13869189978E+01  0.00000000000E+00 0. -1.
         13   -1    0    0    0    0 -0.00000000000E+00 -0.00000000000E+00 -0.10000000000E+04  0.10000000000E+04  0.00000000000E+00 0.  1.
    9000005    2    1    2  501    0  0.50626217577E+01 -0.36633670789E+02 -0.51766887398E+03  0.51902296280E+03  0.60097293770E+01 0.  0.
         13    1    3    3    0    0  0.10557395054E+01 -0.59192015414E+01 -0.57728971417E+02  0.58041241145E+02  0.00000000000E+00 0.  1.
          3    1    3    3  501    0  0.40068822523E+01 -0.30714469248E+02 -0.45993990257E+03  0.46098172165E+03  0.00000000000E+00 0.  1.
         -1    1    1    2    0  502 -0.50626217577E+01  0.36633670789E+02 -0.48094420702E+03  0.48236395620E+03  0.00000000000E+00 0. -1.
<mgrwt>
<rscale>  1 0.30000000E+03</rscale>
<asrwt>0</asrwt>
<pdfrwt beam="1">  1       21 0.50433524E-02 0.30000000E+03</pdfrwt>
<pdfrwt beam="2">0</pdfrwt>
<totfact> 0.28383749E+04</totfact>
</mgrwt>
</event>
<event>
 6    1  0.1273846E-001  0.3000000E+03  0.7818608E-02  0.1093470E+00
         21   -1    0    0  501  502  0.00000000000E+00  0.00000000000E+00  0.97475108188E+00  0.97475108188E+00  0.00000000000E+00 0. -1.
         13   -1    0    0    0    0 -0.00000000000E+00 -0.00000000000E+00 -0.10000000000E+04  0.10000000000E+04  0.00000000000E+00 0.  1.
    9000005    2    1    2  501    0  0.29746246831E+02  0.69329633660E+01 -0.59810840789E+03  0.59889612867E+03  0.31623036432E+01 0.  0.
         13    1    3    3    0    0  0.16260947836E+01 -0.29711369600E-01 -0.45303526023E+02  0.45332709351E+02  0.00000000000E+00 0.  1.
          1    1    3    3  501    0  0.28120152047E+02  0.69626747356E+01 -0.55280488187E+03  0.55356341932E+03  0.00000000000E+00 0.  1.
         -1    1    1    2    0  502 -0.29746246831E+02 -0.69329633660E+01 -0.40091684103E+03  0.40207862241E+03  0.00000000000E+00 0. -1.
<mgrwt>
<rscale>  1 0.30000000E+03</rscale>
<asrwt>0</asrwt>
<pdfrwt beam="1">  1       21 0.35445569E-02 0.30000000E+03</pdfrwt>
<pdfrwt beam="2">0</pdfrwt>
<totfact> 0.51513472E+04</totfact>
</mgrwt>
</event>
<event>
 6    1  0.1273846E-001  0.3000000E+03  0.7818608E-02  0.1093470E+00
         21   -1    0    0  501  502  0.00000000000E+00  0.00000000000E+00  0.11723216590E+01  0.11723216590E+01  0.00000000000E+00 0. -1.
         13   -1    0    0    0    0 -0.00000000000E+00 -0.00000000000E+00 -0.10000000000E+04  0.10000000000E+04  0.00000000000E+00 0.  1.
    9000005    2    1    2  501    0  0.12448960800E+02  0.31771491014E+02 -0.52255053067E+03  0.52367433668E+03  0.33689058405E+01 0.  0.
         13    1    3    3    0    0  0.12778802401E+01  0.12499927517E+01 -0.27474290568E+02  0.27532382788E+02  0.00000000000E+00 0.  1.
          1    1    3    3  501    0  0.11171080560E+02  0.30521498262E+02 -0.49507624010E+03  0.49614195389E+03  0.00000000000E+00 0.  1.
         -3    1    1    2    0  502 -0.12448960800E+02 -0.31771491014E+02 -0.47627714767E+03  0.47749798498E+03  0.00000000000E+00 0. -1.
<mgrwt>
<rscale>  1 0.30000000E+03</rscale>
<asrwt>0</asrwt>
<pdfrwt beam="1">  1       21 0.42629968E-02 0.30000000E+03</pdfrwt>
<pdfrwt beam="2">0</pdfrwt>
<totfact> 0.37764558E+04</totfact>
</mgrwt>
</event>
<event>
 6    1  0.1273846E-001  0.3000000E+03  0.7818608E-02  0.1093470E+00
         21   -1    0    0  501  502  0.00000000000E+00  0.00000000000E+00  0.22914487882E+01  0.22914487882E+01  0.00000000000E+00 0. -1.
         13   -1    0    0    0    0 -0.00000000000E+00 -0.00000000000E+00 -0.10000000000E+04  0.10000000000E+04  0.00000000000E+00 0.  1.
    9000005    2    1    2  501    0 -0.42072564590E+02 -0.16344626877E+02 -0.66329005125E+03  0.66484074033E+03  0.47191527919E+01 0.  0.
         13    1    3    3    0    0 -0.14353659285E+02 -0.62923692809E+01 -0.26263992388E+03  0.26310710948E+03  0.00000000000E+00 0.  1.
          1    1    3    3  501    0 -0.27718905304E+02 -0.10052257596E+02 -0.40065012737E+03  0.40173363085E+03  0.00000000000E+00 0.  1.
         -1    1    1    2    0  502  0.42072564590E+02  0.16344626877E+02 -0.33441849997E+03  0.33745070846E+03  0.00000000000E+00 0. -1.
<mgrwt>
<rscale>  1 0.30000000E+03</rscale>
<asrwt>0</asrwt>
<pdfrwt beam="1">  1       21 0.83325586E-02 0.30000000E+03</pdfrwt>
<pdfrwt beam="2">0</pdfrwt>
<totfact> 0.11890916E+04</totfact>
</mgrwt>
</event>
<event>
 6    1  0.1273846E-001  0.3000000E+03  0.7818608E-02  0.1093470E+00
         21   -1    0    0  501  502  0.00000000000E+00  0.00000000000E+00  0.28176450732E+01  0.28176450732E+01  0.00000000000E+00 0. -1.
         13   -1    0    0    0    0 -0.00000000000E+00 -0.00000000000E+00 -0.10000000000E+04  0.10000000000E+04  0.00000000000E+00 0.  1.
    9000005    2    1    2  501    0 -0.48839621683E+02 -0.19568759843E+02 -0.56172309304E+03  0.56419136477E+03  0.32890456061E+01 0.  0.
         13    1    3    3    0    0 -0.14872291765E+02 -0.52634877862E+01 -0.18330469914E+03  0.18398234180E+03  0.00000000000E+00 0.  1.
          3    1    3    3  501    0 -0.33967329918E+02 -0.14305272057E+02 -0.37841839390E+03  0.38020902297E+03  0.00000000000E+00 0.  1.
         -3    1    1    2    0  502  0.48839621683E+02  0.19568759843E+02 -0.43545926189E+03  0.43862628030E+03  0.00000000000E+00 0. -1.
<mgrwt>
<rscale>  1 0.30000000E+03</rscale>
<asrwt>0</asrwt>
<pdfrwt beam="1">  1       21 0.10246004E-01 0.30000000E+03</pdfrwt>
<pdfrwt beam="2">0</pdfrwt>
<totfact> 0.82373333E+03</totfact>
</mgrwt>
</event>
<event>
 6    1  0.1273846E-001  0.3000000E+03  0.7818608E-02  0.1093470E+00
         21   -1    0    0  501  502  0.00000000000E+00  0.00000000000E+00  0.10131035654E+01  0.10131035654E+01  0.00000000000E+00 0. -1.
         13   -1    0    0    0    0 -0.00000000000E+00 -0.00000000000E+00 -0.10000000000E+04  0.10000000000E+04  0.00000000000E+00 0.  1.
    9000005    2    1    2  501    0 -0.25400219189E+02  0.18334360496E+02 -0.41716832246E+03  0.41835181865E+03  0.27413499550E+01 0.  0.
         13    1    3    3    0    0 -0.22675800867E+02  0.16595854596E+02 -0.36205898752E+03  0.36314780018E+03  0.00000000000E+00 0.  1.
          3    1    3    3  501    0 -0.27244183218E+01  0.17385058995E+01 -0.55109334937E+02  0.55204018469E+02  0.00000000000E+00 0.  1.
         -1    1    1    2    0  502  0.25400219189E+02 -0.18334360496E+02 -0.58181857398E+03  0.58266128491E+03  0.00000000000E+00 0. -1.
<mgrwt>
<rscale>  1 0.30000000E+03</rscale>
<asrwt>0</asrwt>
<pdfrwt beam="1">  1       21 0.36840207E-02 0.30000000E+03</pdfrwt>
<pdfrwt beam="2">0</pdfrwt>
<totfact> 0.48284907E+04</totfact>
</mgrwt>
</event>
<event>
 6    1  0.1273846E-001  0.3000000E+03  0.7818608E-02  0.1093470E+00
         21   -1    0    0  501  502  0.00000000000E+00  0.00000000000E+00  0.14615121246E+01  0.14615121246E+01  0.00000000000E+00 0. -1.
         13   -1    0    0    0    0 -0.00000000000E+00 -0.00000000000E+00 -0.10000000000E+04  0.10000000000E+04  0.00000000000E+00 0.  1.
    9000005    2    1    2  501    0 -0.25246613589E+02  0.28610558776E+02 -0.50367088008E+03  0.50512502866E+03  0.33141467462E+01 0.  0.
         13    1    3    3    0    0 -0.15294998714E+02  0.19680868336E+02 -0.32405237159E+03  0.32500955847E+03  0.00000000000E+00 0.  1.
          1    1    3    3  501    0 -0.99516148755E+01  0.89296904396E+01 -0.17961850849E+03  0.18011547019E+03  0.00000000000E+00 0.  1.
         -3    1    1    2    0  502  0.25246613589E+02 -0.28610558776E+02 -0.49486760780E+03  0.49633648346E+03  0.00000000000E+00 0. -1.
<mgrwt>
<rscale>  1 0.30000000E+03</rscale>
<asrwt>0</asrwt>
<pdfrwt beam="1">  1       21 0.53146008E-02 0.30000000E+03</pdfrwt>
<pdfrwt beam="2">0</pdfrwt>
<totfact> 0.25954444E+04</totfact>
</mgrwt>
</event>
<event>
 6    1  0.1273846E-001  0.3000000E+03  0.7818608E-02  0.1093470E+00
         21   -1    0    0  501  502  0.00000000000E+00  0.00000000000E+00  0.64560714213E+01  0.64560714213E+01  0.00000000000E+00 0. -1.
         13   -1    0    0    0    0 -0.00000000000E+00 -0.00000000000E+00 -0.10000000000E+04  0.10000000000E+04  0.00000000000E+00 0.  1.
    9000005    2    1    2  501    0  0.47154850584E+02 -0.27001758819E+02 -0.86740609652E+03  0.86911187755E+03  0.30731923170E+01 0.  0.
         13    1    3    3    0    0  0.36742773342E+02 -0.19923936181E+02 -0.68004459100E+03  0.68132785087E+03  0.00000000000E+00 0.  1.
          3    1    3    3  501    0  0.10412077242E+02 -0.70778226383E+01 -0.18736150552E+03  0.18778402668E+03  0.00000000000E+00 0.  1.
         -1    1    1    2    0  502 -0.47154850584E+02  0.27001758819E+02 -0.12613783206E+03  0.13734419387E+03  0.00000000000E+00 0. -1.
<mgrwt>
<rscale>  1 0.30000000E+03</rscale>
<asrwt>0</asrwt>
<pdfrwt beam="1">  1       21 0.23476673E-01 0.30000000E+03</pdfrwt>
<pdfrwt beam="2">0</pdfrwt>
<totfact> 0.17628118E+03</totfact>
</mgrwt>
</event>
<event>
 6    1  0.1273846E-001  0.3000000E+03  0.7818608E-02  0.1093470E+00
         21   -1    0    0  501  502  0.00000000000E+00  0.00000000000E+00  0.12594988564E+01  0.12594988564E+01  0.00000000000E+00 0. -1.
         13   -1    0    0    0    0 -0.00000000000E+00 -0.00000000000E+00 -0.10000000000E+04  0.10000000000E+04  0.00000000000E+00 0.  1.
    9000005    2    1    2  501    0  0.31378689962E+02  0.82387473347E+01 -0.70132484011E+03  0.70207966235E+03  0.26118565870E+01 0.  0.
         13    1    3    3    0    0  0.26937698165E+02  0.69739787163E+01 -0.61955120704E+03  0.62017576066E+03  0.00000000000E+00 0.  1.
          1    1    3    3  501    0  0.44409917977E+01  0.12647686184E+01 -0.81773633068E+02  0.81903901696E+02  0.00000000000E+00 0.  1.
         -1    1    1    2    0  502 -0.31378689962E+02 -0.82387473347E+01 -0.29741566103E+03  0.29917983650E+03  0.00000000000E+00 0. -1.
<mgrwt>
<rscale>  1 0.30000000E+03</rscale>
<asrwt>0</asrwt>
<pdfrwt beam="1">  1       21 0.45800055E-02 0.30000000E+03</pdfrwt>
<pdfrwt beam="2">0</pdfrwt>
<totfact> 0.33442356E+04</totfact>
</mgrwt>
</event>
<event>
 6    1  0.1273846E-001  0.3000000E+03  0.7818608E-02  0.1093470E+00
         21   -1    0    0  501  502  0.00000000000E+00  0.00000000000E+00  0.24128006828E+01  0.24128006828E+01  0.00000000000E+00 0. -1.
         13   -1    0    0    0    0 -0.00000000000E+00 -0.00000000000E+00 -0.10000000000E+04  0.10000000000E+04  0.00000000000E+00 0.  1.
    9000005    2    1    2  501    0 -0.42648052482E+01 -0.31806990163E+02 -0.87798357527E+03  0.87857863709E+03  0.39229992874E+01 0.  0.
         13    1    3    3    0    0 -0.22283970590E+01 -0.24344978919E+02 -0.62881698525E+03  0.62929201861E+03  0.00000000000E+00 0.  1.
          3    1    3    3  501    0 -0.20364081892E+01 -0.74620112443E+01 -0.24916659002E+03  0.24928661848E+03  0.00000000000E+00 0.  1.
         -3    1    1    2    0  502  0.42648052482E+01  0.31806990163E+02 -0.11960362405E+03  0.12383416359E+03  0.00000000000E+00 0. -1.
<mgrwt>
<rscale>  1 0.30000000E+03</rscale>
<asrwt>0</asrwt>
<pdfrwt beam="1">  1       21 0.87738392E-02 0.30000000E+03</pdfrwt>
<pdfrwt beam="2">0</pdfrwt>
<totfact> 0.10856185E+04</totfact>
</mgrwt>
</event>
<event>
 6    1  0.1273846E-001  0.3000000E+03  0.7818608E-02  0.1093470E+00
         21   -1    0    0  501  502  0.00000000000E+00  0.00000000000E+00  0.19969339872E+01  0.19969339872E+01  0.00000000000E+00 0. -1.
         13   -1    0    0    0    0 -0.00000000000E+00 -0.00000000000E+00 -0.10000000000E+04  0.10000000000E+04  0.00000000000E+00 0.  1.
    9000005    2    1    2  501    0 -0.30112956085E+02  0.10739790868E+02 -0.84874082035E+03  0.84934913279E+03  0.32918079119E+01 0.  0.
         13    1    3    3    0    0 -0.29673695102E+02  0.10708140998E+02 -0.84354524888E+03  0.84413492960E+03  0.00000000000E+00 0.  1.
          1    1    3    3  501    0 -0.43926098331E+00  0.31649870340E-01 -0.51955714698E+01  0.52142031820E+01  0.00000000000E+00 0.  1.
         -3    1    1    2    0  502  0.30112956085E+02 -0.10739790868E+02 -0.14926224566E+03  0.15264780120E+03  0.00000000000E+00 0. -1.
<mgrwt>
<rscale>  1 0.30000000E+03</rscale>
<asrwt>0</asrwt>
<pdfrwt beam="1">  1       21 0.72615934E-02 0.30000000E+03</pdfrwt>
<pdfrwt beam="2">0</pdfrwt>
<totfact> 0.15135722E+04</totfact>
</mgrwt>
</event>
<event>
 6    1  0.1273846E-001  0.3000000E+03  0.7818608E-02  0.1093470E+00
         21   -1    0    0  501  502  0.00000000000E+00  0.00000000000E+00  0.17501740801E+01  0.17501740801E+01  0.00000000000E+00 0. -1.
         13   -1    0    0    0    0 -0.00000000000E+00 -0.00000000000E+00 -0.10000000000E+04  0.10000000000E+04  0.00000000000E+00 0.  1.
    9000005    2    1    2  501    0  0.40025004442E+02 -0.77000450788E+01 -0.42524420999E+03  0.42729675772E+03  0.94121919658E+01 0.  0.
         13    1    3    3    0    0  0.12240751781E+02 -0.26899002058E+01 -0.17928790966E+03  0.17972541867E+03  0.00000000000E+00 0.  1.
          3    1    3    3  501    0  0.27784252660E+02 -0.50101448730E+01 -0.24595630033E+03  0.24757133905E+03  0.00000000000E+00 0.  1.
         -3    1    1    2    0  502 -0.40025004442E+02  0.77000450788E+01 -0.57300561593E+03  0.57445341636E+03  0.00000000000E+00 0. -1.
<mgrwt>
<rscale>  1 0.30000000E+03</rscale>
<asrwt>0</asrwt>
<pdfrwt beam="1">  1       21 0.63642828E-02 0.30000000E+03</pdfrwt>
<pdfrwt beam="2">0</pdfrwt>
<totfact> 0.19032415E+04</totfact>
</mgrwt>
</event>
<event>
 6    1  0.1273846E-001  0.3000000E+03  0.7818608E-02  0.1093470E+00
         21   -1    0    0  501  502  0.00000000000E+00  0.00000000000E+00  0.25639182895E+01  0.25639182895E+01  0.00000000000E+00 0. -1.
         13   -1    0    0    0    0 -0.00000000000E+00 -0.00000000000E+00 -0.10000000000E+04  0.10000000000E+04  0.00000000000E+00 0.  1.
    9000005    2    1    2  501    0  0.23746792887E+02 -0.29008655129E+02 -0.83546606122E+03  0.83631200166E+03  0.29685733361E+01 0.  0.
         13    1    3    3    0    0  0.97366654379E+01 -0.14003147743E+02 -0.39322530517E+03  0.39359500940E+03  0.00000000000E+00 0.  1.
          1    1    3    3  501    0  0.14010127449E+02 -0.15005507385E+02 -0.44224075605E+03  0.44271699226E+03  0.00000000000E+00 0.  1.
         -1    1    1    2    0  502 -0.23746792887E+02  0.29008655129E+02 -0.16197002049E+03  0.16625191663E+03  0.00000000000E+00 0. -1.
<mgrwt>
<rscale>  1 0.30000000E+03</rscale>
<asrwt>0</asrwt>
<pdfrwt beam="1">  1       21 0.93233589E-02 0.30000000E+03</pdfrwt>
<pdfrwt beam="2">0</pdfrwt>
<totfact> 0.97479273E+03</totfact>
</mgrwt>
</event>
<event>
 6    1  0.1273846E-001  0.3000000E+03  0.7818608E-02  0.1093470E+00
         21   -1    0    0  501  502  0.00000000000E+00  0.00000000000E+00  0.20874884371E+01  0.20874884371E+01  0.00000000000E+00 0. -1.
         13   -1    0    0    0    0 -0.00000000000E+00 -0.00000000000E+00 -0.10000000000E+04  0.10000000000E+04  0.00000000000E+00 0.  1.
    9000005    2    1    2  501    0 -0.17574082336E+02  0.29775574768E+02 -0.82626138727E+03  0.82698882570E+03  0.26841217390E+01 0.  0.
         13    1    3    3    0    0 -0.16811022188E+02  0.29151831874E+02 -0.79500158398E+03  0.79571349008E+03  0.00000000000E+00 0.  1.
          3    1    3    3  501    0 -0.76306014842E+00  0.62374289408E+00 -0.31259803298E+02  0.31275335621E+02  0.00000000000E+00 0.  1.
         -1    1    1    2    0  502  0.17574082336E+02 -0.29775574768E+02 -0.17165112429E+03  0.17509866274E+03  0.00000000000E+00 0. -1.
<mgrwt>
<rscale>  1 0.30000000E+03</rscale>
<asrwt>0</asrwt>
<pdfrwt beam="1">  1       21 0.75908831E-02 0.30000000E+03</pdfrwt>
<pdfrwt beam="2">0</pdfrwt>
<totfact> 0.14005877E+04</totfact>
</mgrwt>
</event>
<event>
 6    1  0.1273846E-001  0.3000000E+03  0.7818608E-02  0.1093470E+00
         21   -1    0    0  501  502  0.00000000000E+00  0.00000000000E+00  0.10695080380E+01  0.10695080380E+01  0.00000000000E+00 0. -1.
         13   -1    0    0    0    0 -0.00000000000E+00 -0.00000000000E+00 -0.10000000000E+04  0.10000000000E+04  0.00000000000E+00 0.  1.
    9000005    2    1    2  501    0 -0.30785510869E+02  0.10297565815E+02 -0.54242168417E+03  0.54340797466E+03  0.41419713079E+01 0.  0.
         13    1    3    3    0    0 -0.25150926817E+02  0.86619054000E+01 -0.41537603464E+03  0.41622691874E+03  0.00000000000E+00 0.  1.
          1    1    3    3  501    0 -0.56345840513E+01  0.16356604147E+01 -0.12704564953E+03  0.12718105593E+03  0.00000000000E+00 0.  1.
         -1    1    1    2    0  502  0.30785510869E+02 -0.10297565815E+02 -0.45650880779E+03  0.45766153337E+03  0.00000000000E+00 0. -1.
<mgrwt>
<rscale>  1 0.30000000E+03</rscale>
<asrwt>0</asrwt>
<pdfrwt beam="1">  1       21 0.38891283E-02 0.30000000E+03</pdfrwt>
<pdfrwt beam="2">0</pdfrwt>
<totfact> 0.44084158E+04</totfact>
</mgrwt>
</event>
<event>
 6    1  0.1273846E-001  0.3000000E+03  0.7818608E-02  0.1093470E+00
         21   -1    0    0  501  502  0.00000000000E+00  0.00000000000E+00  0.21548039850E+01  0.21548039850E+01  0.00000000000E+00 0. -1.
         13   -1    0    0    0    0 -0.00000000000E+00 -0.00000000000E+00 -0.10000000000E+04  0.10000000000E+04  0.00000000000E+00 0.  1.
    9000005    2    1    2  501    0  0.31077578649E+02 -0.80587011330E+01 -0.86059154335E+03  0.86119621529E+03  0.32184119027E+01 0.  0.
         13    1    3    3    0    0  0.28132366478E+02 -0.72631771789E+01 -0.74993809389E+03  0.75050071849E+03  0.00000000000E+00 0.  1.
          3    1    3    3  501    0  0.29452121713E+01 -0.79552395411E+00 -0.11065344946E+03  0.11069549680E+03  0.00000000000E+00 0.  1.
         -1    1    1    2    0  502 -0.31077578649E+02  0.80587011330E+01 -0.13725365266E+03  0.14095858870E+03  0.00000000000E+00 0. -1.
<mgrwt>
<rscale>  1 0.30000000E+03</rscale>
<asrwt>0</asrwt>
<pdfrwt beam="1">  1       21 0.78356674E-02 0.30000000E+03</pdfrwt>
<pdfrwt beam="2">0</pdfrwt>
<totfact> 0.13247871E+04</totfact>
</mgrwt>
</event>
<event>
 6    1  0.1273846E-001  0.3000000E+03  0.7818608E-02  0.1093470E+00
         21   -1    0    0  501  502  0.00000000000E+00  0.00000000000E+00  0.29338043612E+01  0.29338043612E+01  0.00000000000E+00 0. -1.
         13   -1    0    0    0    0 -0.00000000000E+00 -0.00000000000E+00 -0.10000000000E+04  0.10000000000E+04  0.00000000000E+00 0.  1.
    9000005    2    1    2  501    0 -0.27520605351E+02 -0.36519567793E+02 -0.23180744159E+03  0.23631002231E+03  0.40833955510E+01 0.  0.
         13    1    3    3    0    0 -0.16976317548E+02 -0.21691302515E+02 -0.12946255185E+03  0.13236034260E+03  0.00000000000E+00 0.  1.
          1    1    3    3  501    0 -0.10544287803E+02 -0.14828265278E+02 -0.10234488974E+03  0.10394967971E+03  0.00000000000E+00 0.  1.
         -3    1    1    2    0  502  0.27520605351E+02  0.36519567793E+02 -0.76525875405E+03  0.76662378205E+03  0.00000000000E+00 0. -1.
<mgrwt>
<rscale>  1 0.30000000E+03</rscale>
<asrwt>0</asrwt>
<pdfrwt beam="1">  1       21 0.10668402E-01 0.30000000E+03</pdfrwt>
<pdfrwt beam="2">0</pdfrwt>
<totfact> 0.76620576E+03</totfact>
</mgrwt>
</event>
<event>
 6    1  0.1273846E-001  0.3000000E+03  0.7818608E-02  0.1093470E+00
         21   -1    0    0  501  502  0.00000000000E+00  0.00000000000E+00  0.93373212690E+00  0.93373212690E+00  0.00000000000E+00 0. -1.
         13   -1    0    0    0    0 -0.00000000000E+00 -0.00000000000E+00 -0.10000000000E+04  0.10000000000E+04  0.00000000000E+00 0.  1.
    9000005    2    1    2  501    0 -0.29342960278E+02  0.80558843635E+01 -0.47341926199E+03  0.47440673245E+03  0.31691613555E+01 0.  0.
         13    1    3    3    0    0 -0.46017404234E+01  0.71730800964E+00 -0.89507114385E+02  0.89628199085E+02  0.00000000000E+00 0.  1.
          3    1    3    3  501    0 -0.24741219855E+02  0.73385763539E+01 -0.38391214760E+03  0.38477853337E+03  0.00000000000E+00 0.  1.
         -3    1    1    2    0  502  0.29342960278E+02 -0.80558843635E+01 -0.52564700589E+03  0.52652699968E+03  0.00000000000E+00 0. -1.
<mgrwt>
<rscale>  1 0.30000000E+03</rscale>
<asrwt>0</asrwt>
<pdfrwt beam="1">  1       21 0.33953967E-02 0.30000000E+03</pdfrwt>
<pdfrwt beam="2">0</pdfrwt>
<totfact> 0.55356203E+04</totfact>
</mgrwt>
</event>
<event>
 6    1  0.1273846E-001  0.3000000E+03  0.7818608E-02  0.1093470E+00
         21   -1    0    0  501  502  0.00000000000E+00  0.00000000000E+00  0.80012182318E+01  0.80012182318E+01  0.00000000000E+00 0. -1.
         13   -1    0    0    0    0 -0.00000000000E+00 -0.00000000000E+00 -0.10000000000E+04  0.10000000000E+04  0.00000000000E+00 0.  1.
    9000005    2    1    2  501    0  0.42356003634E+02  0.76114470320E+02 -0.61001731971E+03  0.61621392773E+03  0.33212583364E+01 0.  0.
         13    1    3    3    0    0  0.88851985656E+01  0.16475554070E+02 -0.12184430760E+03  0.12327378444E+03  0.00000000000E+00 0.  1.
          3    1    3    3  501    0  0.33470805069E+02  0.59638916250E+02 -0.48817301211E+03  0.49294014330E+03  0.00000000000E+00 0.  1.
         -1    1    1    2    0  502 -0.42356003634E+02 -0.76114470320E+02 -0.38198146206E+03  0.39178729050E+03  0.00000000000E+00 0. -1.
<mgrwt>
<rscale>  1 0.30000000E+03</rscale>
<asrwt>0</asrwt>
<pdfrwt beam="1">  1       21 0.29095400E-01 0.30000000E+03</pdfrwt>
<pdfrwt beam="2">0</pdfrwt>
<totfact> 0.11558044E+03</totfact>
</mgrwt>
</event>
<event>
 6    1  0.1273846E-001  0.3000000E+03  0.7818608E-02  0.1093470E+00
         21   -1    0    0  501  502  0.00000000000E+00  0.00000000000E+00  0.20338605456E+01  0.20338605456E+01  0.00000000000E+00 0. -1.
         13   -1    0    0    0    0 -0.00000000000E+00 -0.00000000000E+00 -0.10000000000E+04  0.10000000000E+04  0.00000000000E+00 0.  1.
    9000005    2    1    2  501    0 -0.30699714214E+02 -0.18829268724E+02 -0.20037087429E+03  0.20362593171E+03  0.42448778317E+01 0.  0.
         13    1    3    3    0    0 -0.90626528667E+00 -0.11607144696E+01 -0.12710961524E+02  0.12795980530E+02  0.00000000000E+00 0.  1.
          1    1    3    3  501    0 -0.29793448928E+02 -0.17668554255E+02 -0.18765991276E+03  0.19082995118E+03  0.00000000000E+00 0.  1.
         -3    1    1    2    0  502  0.30699714214E+02  0.18829268724E+02 -0.79759526517E+03  0.79840792884E+03  0.00000000000E+00 0. -1.
<mgrwt>
<rscale>  1 0.30000000E+03</rscale>
<asrwt>0</asrwt>
<pdfrwt beam="1">  1       21 0.73958721E-02 0.30000000E+03</pdfrwt>
<pdfrwt beam="2">0</pdfrwt>
<totfact> 0.14658786E+04</totfact>
</mgrwt>
</event>
<event>
 6    1  0.1273846E-001  0.3000000E+03  0.7818608E-02  0.1093470E+00
         21   -1    0    0  501  502  0.00000000000E+00  0.00000000000E+00  0.18845335272E+01  0.18845335272E+01  0.00000000000E+00 0. -1.
         13   -1    0    0    0    0 -0.00000000000E+00 -0.00000000000E+00 -0.10000000000E+04  0.10000000000E+04  0.00000000000E+00 0.  1.
    9000005    2    1    2  501    0 -0.24856087806E+02 -0.30558594497E+02 -0.70856265272E+03  0.70966460822E+03  0.33422329765E+01 0.  0.
         13    1    3    3    0    0 -0.28192575584E+01 -0.26300556130E+01 -0.55587216593E+02  0.55720768608E+02  0.00000000000E+00 0.  1.
          3    1    3    3  501    0 -0.22036830247E+02 -0.27928538884E+02 -0.65297543613E+03  0.65394383961E+03  0.00000000000E+00 0.  1.
         -1    1    1    2    0  502  0.24856087806E+02  0.30558594497E+02 -0.28955281375E+03  0.29221992531E+03  0.00000000000E+00 0. -1.
<mgrwt>
<rscale>  1 0.30000000E+03</rscale>
<asrwt>0</asrwt>
<pdfrwt beam="1">  1       21 0.68528636E-02 0.30000000E+03</pdfrwt>
<pdfrwt beam="2">0</pdfrwt>
<totfact> 0.16742469E+04</totfact>
</mgrwt>
</event>
<event>
 6    1  0.1273846E-001  0.3000000E+03  0.7818608E-02  0.1093470E+00
         21   -1    0    0  501  502  0.00000000000E+00  0.00000000000E+00  0.39719305218E+01  0.39719305218E+01  0.00000000000E+00 0. -1.
         13   -1    0    0    0    0 -0.00000000000E+00 -0.00000000000E+00 -0.10000000000E+04  0.10000000000E+04  0.00000000000E+00 0.  1.
    9000005    2    1    2  501    0  0.32190971080E+02  0.25356124698E+00 -0.92951079596E+03  0.93007422698E+03  0.33800850401E+01 0.  0.
         13    1    3    3    0    0  0.27101125205E+02 -0.42206206984E+00 -0.80951464876E+03  0.80996828067E+03  0.00000000000E+00 0.  1.
          1    1    3    3  501    0  0.50898458744E+01  0.67562331683E+00 -0.11999614720E+03  0.12010594632E+03  0.00000000000E+00 0.  1.
         -1    1    1    2    0  502 -0.32190971080E+02 -0.25356124698E+00 -0.66517273517E+02  0.73897703540E+02  0.00000000000E+00 0. -1.
<mgrwt>
<rscale>  1 0.30000000E+03</rscale>
<asrwt>0</asrwt>
<pdfrwt beam="1">  1       21 0.14443414E-01 0.30000000E+03</pdfrwt>
<pdfrwt beam="2">0</pdfrwt>
<totfact> 0.44158926E+03</totfact>
</mgrwt>
</event>
<event>
 6    1  0.1273846E-001  0.3000000E+03  0.7818608E-02  0.1093470E+00
         21   -1    0    0  501  502  0.00000000000E+00  0.00000000000E+00  0.23780743889E+01  0.23780743889E+01  0.00000000000E+00 0. -1.
         13   -1    0    0    0    0 -0.00000000000E+00 -0.00000000000E+00 -0.10000000000E+04  0.10000000000E+04  0.00000000000E+00 0.  1.
    9000005    2    1    2  501    0 -0.82170528247E+01  0.45851462990E+02 -0.64458708861E+03  0.64628332189E+03  0.44430557852E+01 0.  0.
         13    1    3    3    0    0 -0.26609716452E+00  0.95042645890E+01 -0.11673950942E+03  0.11712606419E+03  0.00000000000E+00 0.  1.
          1    1    3    3  501    0 -0.79509556601E+01  0.36347198401E+02 -0.52784757918E+03  0.52915725770E+03  0.00000000000E+00 0.  1.
         -3    1    1    2    0  502  0.82170528247E+01 -0.45851462990E+02 -0.35303483700E+03  0.35609475249E+03  0.00000000000E+00 0. -1.
<mgrwt>
<rscale>  1 0.30000000E+03</rscale>
<asrwt>0</asrwt>
<pdfrwt beam="1">  1       21 0.86475615E-02 0.30000000E+03</pdfrwt>
<pdfrwt beam="2">0</pdfrwt>
<totfact> 0.11137825E+04</totfact>
</mgrwt>
</event>
<event>
 6    1  0.1273846E-001  0.3000000E+03  0.7818608E-02  0.1093470E+00
         21   -1    0    0  501  502  0.00000000000E+00  0.00000000000E+00  0.23876069364E+01  0.23876069364E+01  0.00000000000E+00 0. -1.
         13   -1    0    0    0    0 -0.00000000000E+00 -0.00000000000E+00 -0.10000000000E+04  0.10000000000E+04  0.00000000000E+00 0.  1.
    9000005    2    1    2  501    0 -0.19397565393E+02  0.33281115363E+02 -0.19151716905E+03  0.19537248417E+03  0.27718856451E+01 0.  0.
         13    1    3    3    0    0 -0.39029665189E+01  0.83817810745E+01 -0.50202966139E+02  0.51047284069E+02  0.00000000000E+00 0.  1.
          1    1    3    3  501    0 -0.15494598874E+02  0.24899334288E+02 -0.14131420291E+03  0.14432520011E+03  0.00000000000E+00 0.  1.
         -3    1    1    2    0  502  0.19397565393E+02 -0.33281115363E+02 -0.80609522402E+03  0.80701512276E+03  0.00000000000E+00 0. -1.
<mgrwt>
<rscale>  1 0.30000000E+03</rscale>
<asrwt>0</asrwt>
<pdfrwt beam="1">  1       21 0.86822253E-02 0.30000000E+03</pdfrwt>
<pdfrwt beam="2">0</pdfrwt>
<totfact> 0.11059417E+04</totfact>
</mgrwt>
</event>
<event>
 6    1  0.1273846E-001  0.3000000E+03  0.7818608E-02  0.1093470E+00
         21   -1    0    0  501  502  0.00000000000E+00  0.00000000000E+00  0.12078994914E+01  0.12078994914E+01  0.00000000000E+00 0. -1.
         13   -1    0    0    0    0 -0.00000000000E+00 -0.00000000000E+00 -0.10000000000E+04  0.10000000000E+04  0.00000000000E+00 0.  1.
    9000005    2    1    2  501    0  0.32572009342E+02  0.51540426987E+01 -0.65540797852E+03  0.65624390835E+03  0.29914867817E+01 0.  0.
         13    1    3    3    0    0  0.46808397897E+01  0.62176375865E+00 -0.11644743124E+03  0.11654312975E+03  0.00000000000E+00 0.  1.
          1    1    3    3  501    0  0.27891169552E+02  0.45322789401E+01 -0.53896054728E+03  0.53970077860E+03  0.00000000000E+00 0.  1.
         -1    1    1    2    0  502 -0.32572009342E+02 -0.51540426987E+01 -0.34338412199E+03  0.34496399114E+03  0.00000000000E+00 0. -1.
<mgrwt>
<rscale>  1 0.30000000E+03</rscale>
<asrwt>0</asrwt>
<pdfrwt beam="1">  1       21 0.43923710E-02 0.30000000E+03</pdfrwt>
<pdfrwt beam="2">0</pdfrwt>
<totfact> 0.35901781E+04</totfact>
</mgrwt>
</event>
<event>
 6    1  0.1273846E-001  0.3000000E+03  0.7818608E-02  0.1093470E+00
         21   -1    0    0  501  502  0.00000000000E+00  0.00000000000E+00  0.12717846909E+01  0.12717846909E+01  0.00000000000E+00 0. -1.
         13   -1    0    0    0    0 -0.00000000000E+00 -0.00000000000E+00 -0.10000000000E+04  0.10000000000E+04  0.00000000000E+00 0.  1.
    9000005    2    1    2  501    0 -0.32222881682E+02 -0.12837168812E+02 -0.61202956785E+03  0.61302064051E+03  0.33176449593E+01 0.  0.
         13    1    3    3    0    0 -0.15522578134E+02 -0.50836452602E+01 -0.31072919941E+03  0.31115820614E+03  0.00000000000E+00 0.  1.
          1    1    3    3  501    0 -0.16700303548E+02 -0.77535235513E+01 -0.30130036843E+03  0.30186243437E+03  0.00000000000E+00 0.  1.
         -3    1    1    2    0  502  0.32222881682E+02  0.12837168812E+02 -0.38669864746E+03  0.38825114418E+03  0.00000000000E+00 0. -1.
<mgrwt>
<rscale>  1 0.30000000E+03</rscale>
<asrwt>0</asrwt>
<pdfrwt beam="1">  1       21 0.46246814E-02 0.30000000E+03</pdfrwt>
<pdfrwt beam="2">0</pdfrwt>
<totfact> 0.32895328E+04</totfact>
</mgrwt>
</event>
<event>
 6    1  0.1273846E-001  0.3000000E+03  0.7818608E-02  0.1093470E+00
         21   -1    0    0  501  502  0.00000000000E+00  0.00000000000E+00  0.13846831682E+01  0.13846831682E+01  0.00000000000E+00 0. -1.
         13   -1    0    0    0    0 -0.00000000000E+00 -0.00000000000E+00 -0.10000000000E+04  0.10000000000E+04  0.00000000000E+00 0.  1.
    9000005    2    1    2  501    0  0.16442789880E+02  0.26229946696E+02 -0.77685667464E+03  0.77747561495E+03  0.19140191646E+01 0.  0.
         13    1    3    3    0    0  0.14096042798E+02  0.21130295268E+02 -0.64000439857E+03  0.64050824975E+03  0.00000000000E+00 0.  1.
          1    1    3    3  501    0  0.23467470822E+01  0.50996514285E+01 -0.13685227607E+03  0.13696736520E+03  0.00000000000E+00 0.  1.
         -3    1    1    2    0  502 -0.16442789880E+02 -0.26229946696E+02 -0.22175864219E+03  0.22390906822E+03  0.00000000000E+00 0. -1.
<mgrwt>
<rscale>  1 0.30000000E+03</rscale>
<asrwt>0</asrwt>
<pdfrwt beam="1">  1       21 0.50352221E-02 0.30000000E+03</pdfrwt>
<pdfrwt beam="2">0</pdfrwt>
<totfact> 0.28461953E+04</totfact>
</mgrwt>
</event>
<event>
 6    1  0.1273846E-001  0.3000000E+03  0.7818608E-02  0.1093470E+00
         21   -1    0    0  501  502  0.00000000000E+00  0.00000000000E+00  0.18758746686E+01  0.18758746686E+01  0.00000000000E+00 0. -1.
         13   -1    0    0    0    0 -0.00000000000E+00 -0.00000000000E+00 -0.10000000000E+04  0.10000000000E+04  0.00000000000E+00 0.  1.
    9000005    2    1    2  501    0 -0.16249164356E+02 -0.32121312344E+02 -0.77705887969E+03  0.77789896318E+03  0.32373390647E+01 0.  0.
         13    1    3    3    0    0 -0.13154466865E+02 -0.22818574322E+02 -0.56604773731E+03  0.56666018763E+03  0.00000000000E+00 0.  1.
          1    1    3    3  501    0 -0.30946974907E+01 -0.93027380224E+01 -0.21101114238E+03  0.21123877555E+03  0.00000000000E+00 0.  1.
         -1    1    1    2    0  502  0.16249164356E+02  0.32121312344E+02 -0.22106524564E+03  0.22397691149E+03  0.00000000000E+00 0. -1.
<mgrwt>
<rscale>  1 0.30000000E+03</rscale>
<asrwt>0</asrwt>
<pdfrwt beam="1">  1       21 0.68213768E-02 0.30000000E+03</pdfrwt>
<pdfrwt beam="2">0</pdfrwt>
<totfact> 0.16876949E+04</totfact>
</mgrwt>
</event>
<event>
 6    1  0.1273846E-001  0.3000000E+03  0.7818608E-02  0.1093470E+00
         21   -1    0    0  501  502  0.00000000000E+00  0.00000000000E+00  0.27841128401E+01  0.27841128401E+01  0.00000000000E+00 0. -1.
         13   -1    0    0    0    0 -0.00000000000E+00 -0.00000000000E+00 -0.10000000000E+04  0.10000000000E+04  0.00000000000E+00 0.  1.
    9000005    2    1    2  501    0  0.50737638549E+02  0.37917419751E+01 -0.63002740325E+03  0.63208737966E+03  0.33528211429E+01 0.  0.
         13    1    3    3    0    0  0.48580669242E+02  0.33529097856E+01 -0.60953583087E+03  0.61147792482E+03  0.00000000000E+00 0.  1.
          1    1    3    3  501    0  0.21569693072E+01  0.43883218948E+00 -0.20491572382E+02  0.20609454844E+02  0.00000000000E+00 0.  1.
         -3    1    1    2    0  502 -0.50737638549E+02 -0.37917419751E+01 -0.36718848391E+03  0.37069673318E+03  0.00000000000E+00 0. -1.
<mgrwt>
<rscale>  1 0.30000000E+03</rscale>
<asrwt>0</asrwt>
<pdfrwt beam="1">  1       21 0.10124068E-01 0.30000000E+03</pdfrwt>
<pdfrwt beam="2">0</pdfrwt>
<totfact> 0.84156512E+03</totfact>
</mgrwt>
</event>
<event>
 6    1  0.1273846E-001  0.3000000E+03  0.7818608E-02  0.1093470E+00
         21   -1    0    0  501  502  0.00000000000E+00  0.00000000000E+00  0.21385931208E+01  0.21385931208E+01  0.00000000000E+00 0. -1.
         13   -1    0    0    0    0 -0.00000000000E+00 -0.00000000000E+00 -0.10000000000E+04  0.10000000000E+04  0.00000000000E+00 0.  1.
    9000005    2    1    2  501    0 -0.38430873502E+02 -0.16246819124E+02 -0.28542866985E+03  0.28848510861E+03  0.36388384238E+01 0.  0.
         13    1    3    3    0    0 -0.89776808536E+01 -0.27188708795E+01 -0.72328443462E+02  0.72934180917E+02  0.00000000000E+00 0.  1.
          1    1    3    3  501    0 -0.29453192648E+02 -0.13527948245E+02 -0.21310022639E+03  0.21555092769E+03  0.00000000000E+00 0.  1.
         -1    1    1    2    0  502  0.38430873502E+02  0.16246819124E+02 -0.71243273703E+03  0.71365348451E+03  0.00000000000E+00 0. -1.
<mgrwt>
<rscale>  1 0.30000000E+03</rscale>
<asrwt>0</asrwt>
<pdfrwt beam="1">  1       21 0.77767187E-02 0.30000000E+03</pdfrwt>
<pdfrwt beam="2">0</pdfrwt>
<totfact> 0.13424527E+04</totfact>
</mgrwt>
</event>
<event>
 6    1  0.1273846E-001  0.3000000E+03  0.7818608E-02  0.1093470E+00
         21   -1    0    0  501  502  0.00000000000E+00  0.00000000000E+00  0.11894960135E+01  0.11894960135E+01  0.00000000000E+00 0. -1.
         13   -1    0    0    0    0 -0.00000000000E+00 -0.00000000000E+00 -0.10000000000E+04  0.10000000000E+04  0.00000000000E+00 0.  1.
    9000005    2    1    2  501    0  0.22930101473E+01  0.30872488690E+02 -0.28170542569E+03  0.28341650838E+03  0.29329008452E+01 0.  0.
         13    1    3    3    0    0  0.10838205794E+01  0.27255548925E+02 -0.24538946655E+03  0.24690085036E+03  0.00000000000E+00 0.  1.
          3    1    3    3  501    0  0.12091895679E+01  0.36169397654E+01 -0.36315959135E+02  0.36515658019E+02  0.00000000000E+00 0.  1.
         -3    1    1    2    0  502 -0.22930101473E+01 -0.30872488690E+02 -0.71710507830E+03  0.71777298763E+03  0.00000000000E+00 0. -1.
<mgrwt>
<rscale>  1 0.30000000E+03</rscale>
<asrwt>0</asrwt>
<pdfrwt beam="1">  1       21 0.43254492E-02 0.30000000E+03</pdfrwt>
<pdfrwt beam="2">0</pdfrwt>
<totfact> 0.36847102E+04</totfact>
</mgrwt>
</event>
<event>
 6    1  0.1273846E-001  0.3000000E+03  0.7818608E-02  0.1093470E+00
         21   -1    0    0  501  502  0.00000000000E+00  0.00000000000E+00  0.25580512971E+01  0.25580512971E+01  0.00000000000E+00 0. -1.
         13   -1    0    0    0    0 -0.00000000000E+00 -0.00000000000E+00 -0.10000000000E+04  0.10000000000E+04  0.00000000000E+00 0.  1.
    9000005    2    1    2  501    0  0.25205915789E+02 -0.38611587752E+02 -0.70389408096E+03  0.70541070813E+03  0.33461953745E+01 0.  0.
         13    1    3    3    0    0  0.19724669601E+01 -0.35372092470E+01 -0.49331135747E+02  0.49497105261E+02  0.00000000000E+00 0.  1.
          3    1    3    3  501    0  0.23233448829E+02 -0.35074378505E+02 -0.65456294522E+03  0.65591360286E+03  0.00000000000E+00 0.  1.
         -3    1    1    2    0  502 -0.25205915789E+02  0.38611587752E+02 -0.29354786774E+03  0.29714734317E+03  0.00000000000E+00 0. -1.
<mgrwt>
<rscale>  1 0.30000000E+03</rscale>
<asrwt>0</asrwt>
<pdfrwt beam="1">  1       21 0.93020243E-02 0.30000000E+03</pdfrwt>
<pdfrwt beam="2">0</pdfrwt>
<totfact> 0.97877041E+03</totfact>
</mgrwt>
</event>
<event>
 6    1  0.1273846E-001  0.3000000E+03  0.7818608E-02  0.1093470E+00
         21   -1    0    0  501  502  0.00000000000E+00  0.00000000000E+00  0.26514998548E+01  0.26514998548E+01  0.00000000000E+00 0. -1.
         13   -1    0    0    0    0 -0.00000000000E+00 -0.00000000000E+00 -0.10000000000E+04  0.10000000000E+04  0.00000000000E+00 0.  1.
    9000005    2    1    2  501    0 -0.47081983958E+02  0.17192085576E+02 -0.60847470586E+03  0.61056081022E+03  0.55456541550E+01 0.  0.
         13    1    3    3    0    0 -0.13649252089E+02  0.75290611495E+01 -0.19954763160E+03  0.20015555481E+03  0.00000000000E+00 0.  1.
          3    1    3    3  501    0 -0.33432731869E+02  0.96630244268E+01 -0.40892707427E+03  0.41040525541E+03  0.00000000000E+00 0.  1.
         -1    1    1    2    0  502  0.47081983958E+02 -0.17192085576E+02 -0.38887379428E+03  0.39209068964E+03  0.00000000000E+00 0. -1.
<mgrwt>
<rscale>  1 0.30000000E+03</rscale>
<asrwt>0</asrwt>
<pdfrwt beam="1">  1       21 0.96418380E-02 0.30000000E+03</pdfrwt>
<pdfrwt beam="2">0</pdfrwt>
<totfact> 0.91819398E+03</totfact>
</mgrwt>
</event>
<event>
 6    1  0.1273846E-001  0.3000000E+03  0.7818608E-02  0.1093470E+00
         21   -1    0    0  501  502  0.00000000000E+00  0.00000000000E+00  0.23562916674E+01  0.23562916674E+01  0.00000000000E+00 0. -1.
         13   -1    0    0    0    0 -0.00000000000E+00 -0.00000000000E+00 -0.10000000000E+04  0.10000000000E+04  0.00000000000E+00 0.  1.
    9000005    2    1    2  501    0  0.32201514127E+02 -0.14483728184E+02 -0.84256544646E+03  0.84330918167E+03  0.26699101845E+01 0.  0.
         13    1    3    3    0    0  0.21399232845E+02 -0.10930073483E+02 -0.58063729161E+03  0.58113428576E+03  0.00000000000E+00 0.  1.
          3    1    3    3  501    0  0.10802281282E+02 -0.35536547004E+01 -0.26192815485E+03  0.26217489591E+03  0.00000000000E+00 0.  1.
         -3    1    1    2    0  502 -0.32201514127E+02  0.14483728184E+02 -0.15507826187E+03  0.15904711000E+03  0.00000000000E+00 0. -1.
<mgrwt>
<rscale>  1 0.30000000E+03</rscale>
<asrwt>0</asrwt>
<pdfrwt beam="1">  1       21 0.85683514E-02 0.30000000E+03</pdfrwt>
<pdfrwt beam="2">0</pdfrwt>
<totfact> 0.11320202E+04</totfact>
</mgrwt>
</event>
<event>
 6    1  0.1273846E-001  0.3000000E+03  0.7818608E-02  0.1093470E+00
         21   -1    0    0  501  502  0.00000000000E+00  0.00000000000E+00  0.19382580261E+01  0.19382580261E+01  0.00000000000E+00 0. -1.
         13   -1    0    0    0    0 -0.00000000000E+00 -0.00000000000E+00 -0.10000000000E+04  0.10000000000E+04  0.00000000000E+00 0.  1.
    9000005    2    1    2  501    0 -0.30164163550E+02  0.43232096578E+01 -0.86029668703E+03  0.86084333513E+03  0.35058539641E+01 0.  0.
         13    1    3    3    0    0 -0.19381091876E+02  0.39124395109E+01 -0.59053892838E+03  0.59086983324E+03  0.00000000000E+00 0.  1.
          3    1    3    3  501    0 -0.10783071674E+02  0.41077014686E+00 -0.26975775865E+03  0.26997350189E+03  0.00000000000E+00 0.  1.
         -3    1    1    2    0  502  0.30164163550E+02 -0.43232096578E+01 -0.13776505494E+03  0.14109492290E+03  0.00000000000E+00 0. -1.
<mgrwt>
<rscale>  1 0.30000000E+03</rscale>
<asrwt>0</asrwt>
<pdfrwt beam="1">  1       21 0.70482259E-02 0.30000000E+03</pdfrwt>
<pdfrwt beam="2">0</pdfrwt>
<totfact> 0.15943584E+04</totfact>
</mgrwt>
</event>
<event>
 6    1  0.1273846E-001  0.3000000E+03  0.7818608E-02  0.1093470E+00
         21   -1    0    0  501  502  0.00000000000E+00  0.00000000000E+00  0.19862907352E+01  0.19862907352E+01  0.00000000000E+00 0. -1.
         13   -1    0    0    0    0 -0.00000000000E+00 -0.00000000000E+00 -0.10000000000E+04  0.10000000000E+04  0.00000000000E+00 0.  1.
    9000005    2    1    2  501    0 -0.28724242434E+02  0.24557700113E+02 -0.76417768662E+03  0.76511618240E+03  0.26595296841E+01 0.  0.
         13    1    3    3    0    0 -0.15674991215E+02  0.12298739717E+02 -0.42323033703E+03  0.42369904713E+03  0.00000000000E+00 0.  1.
          3    1    3    3  501    0 -0.13049251219E+02  0.12258960396E+02 -0.34094734958E+03  0.34141713527E+03  0.00000000000E+00 0.  1.
         -3    1    1    2    0  502  0.28724242434E+02 -0.24557700113E+02 -0.23383602265E+03  0.23687010834E+03  0.00000000000E+00 0. -1.
<mgrwt>
<rscale>  1 0.30000000E+03</rscale>
<asrwt>0</asrwt>
<pdfrwt beam="1">  1       21 0.72228906E-02 0.30000000E+03</pdfrwt>
<pdfrwt beam="2">0</pdfrwt>
<totfact> 0.15277567E+04</totfact>
</mgrwt>
</event>
<event>
 6    1  0.1273846E-001  0.3000000E+03  0.7818608E-02  0.1093470E+00
         21   -1    0    0  501  502  0.00000000000E+00  0.00000000000E+00  0.30199246227E+01  0.30199246227E+01  0.00000000000E+00 0. -1.
         13   -1    0    0    0    0 -0.00000000000E+00 -0.00000000000E+00 -0.10000000000E+04  0.10000000000E+04  0.00000000000E+00 0.  1.
    9000005    2    1    2  501    0  0.13581965533E+02 -0.53033530349E+02 -0.53837310357E+03  0.54115697989E+03  0.28728217261E+01 0.  0.
         13    1    3    3    0    0  0.22909729403E+01 -0.13918688729E+02 -0.13626086497E+03  0.13698905714E+03  0.00000000000E+00 0.  1.
          1    1    3    3  501    0  0.11290992593E+02 -0.39114841620E+02 -0.40211223860E+03  0.40416792275E+03  0.00000000000E+00 0.  1.
         -3    1    1    2    0  502 -0.13581965533E+02  0.53033530349E+02 -0.45860697180E+03  0.46186294473E+03  0.00000000000E+00 0. -1.
<mgrwt>
<rscale>  1 0.30000000E+03</rscale>
<asrwt>0</asrwt>
<pdfrwt beam="1">  1       21 0.10981567E-01 0.30000000E+03</pdfrwt>
<pdfrwt beam="2">0</pdfrwt>
<totfact> 0.72739361E+03</totfact>
</mgrwt>
</event>
<event>
 6    1  0.1273846E-001  0.3000000E+03  0.7818608E-02  0.1093470E+00
         21   -1    0    0  501  502  0.00000000000E+00  0.00000000000E+00  0.34242178852E+01  0.34242178852E+01  0.00000000000E+00 0. -1.
         13   -1    0    0    0    0 -0.00000000000E+00 -0.00000000000E+00 -0.10000000000E+04  0.10000000000E+04  0.00000000000E+00 0.  1.
    9000005    2    1    2  501    0 -0.33823775456E+02  0.10172504375E+01 -0.90755631646E+03  0.90819004414E+03  0.23677274569E+01 0.  0.
         13    1    3    3    0    0 -0.31815316823E+02  0.13405112188E+01 -0.86305373036E+03  0.86364098608E+03  0.00000000000E+00 0.  1.
          3    1    3    3  501    0 -0.20084586327E+01 -0.32326078126E+00 -0.44502586102E+02  0.44549058053E+02  0.00000000000E+00 0.  1.
         -3    1    1    2    0  502  0.33823775456E+02 -0.10172504375E+01 -0.89019465652E+02  0.95234173749E+02  0.00000000000E+00 0. -1.
<mgrwt>
<rscale>  1 0.30000000E+03</rscale>
<asrwt>0</asrwt>
<pdfrwt beam="1">  1       21 0.12451728E-01 0.30000000E+03</pdfrwt>
<pdfrwt beam="2">0</pdfrwt>
<totfact> 0.57943810E+03</totfact>
</mgrwt>
</event>
<event>
 6    1  0.1273846E-001  0.3000000E+03  0.7818608E-02  0.1093470E+00
         21   -1    0    0  501  502  0.00000000000E+00  0.00000000000E+00  0.11608134758E+01  0.11608134758E+01  0.00000000000E+00 0. -1.
         13   -1    0    0    0    0 -0.00000000000E+00 -0.00000000000E+00 -0.10000000000E+04  0.10000000000E+04  0.00000000000E+00 0.  1.
    9000005    2    1    2  501    0  0.30135286282E+02  0.11189456350E+02 -0.66279740057E+03  0.66358501263E+03  0.33668034743E+01 0.  0.
         13    1    3    3    0    0  0.16909298665E+02  0.64703848796E+01 -0.40691467638E+03  0.40731725242E+03  0.00000000000E+00 0.  1.
          1    1    3    3  501    0  0.13225987617E+02  0.47190714708E+01 -0.25588272419E+03  0.25626776021E+03  0.00000000000E+00 0.  1.
         -3    1    1    2    0  502 -0.30135286282E+02 -0.11189456350E+02 -0.33604178595E+03  0.33757580085E+03  0.00000000000E+00 0. -1.
<mgrwt>
<rscale>  1 0.30000000E+03</rscale>
<asrwt>0</asrwt>
<pdfrwt beam="1">  1       21 0.42211488E-02 0.30000000E+03</pdfrwt>
<pdfrwt beam="2">0</pdfrwt>
<totfact> 0.38399331E+04</totfact>
</mgrwt>
</event>
<event>
 6    1  0.1273846E-001  0.3000000E+03  0.7818608E-02  0.1093470E+00
         21   -1    0    0  501  502  0.00000000000E+00  0.00000000000E+00  0.10596956010E+02  0.10596956010E+02  0.00000000000E+00 0. -1.
         13   -1    0    0    0    0 -0.00000000000E+00 -0.00000000000E+00 -0.10000000000E+04  0.10000000000E+04  0.00000000000E+00 0.  1.
    9000005    2    1    2  501    0  0.59580370200E+02 -0.61921648707E+02 -0.77280373080E+03  0.77757469621E+03  0.35624068441E+01 0.  0.
         13    1    3    3    0    0  0.56077482883E+02 -0.56975644573E+02 -0.71914986927E+03  0.72357960352E+03  0.00000000000E+00 0.  1.
          3    1    3    3  501    0  0.35028873170E+01 -0.49460041345E+01 -0.53653861536E+02  0.53995092686E+02  0.00000000000E+00 0.  1.
         -3    1    1    2    0  502 -0.59580370200E+02  0.61921648707E+02 -0.21659931319E+03  0.23302225980E+03  0.00000000000E+00 0. -1.
<mgrwt>
<rscale>  1 0.30000000E+03</rscale>
<asrwt>0</asrwt>
<pdfrwt beam="1">  1       21 0.38534467E-01 0.30000000E+03</pdfrwt>
<pdfrwt beam="2">0</pdfrwt>
<totfact> 0.65279949E+02</totfact>
</mgrwt>
</event>
<event>
 6    1  0.1273846E-001  0.3000000E+03  0.7818608E-02  0.1093470E+00
         21   -1    0    0  501  502  0.00000000000E+00  0.00000000000E+00  0.12262509430E+01  0.12262509430E+01  0.00000000000E+00 0. -1.
         13   -1    0    0    0    0 -0.00000000000E+00 -0.00000000000E+00 -0.10000000000E+04  0.10000000000E+04  0.00000000000E+00 0.  1.
    9000005    2    1    2  501    0 -0.29243536098E+02  0.14547637874E+02 -0.67645434916E+03  0.67725616942E+03  0.43144351348E+01 0.  0.
         13    1    3    3    0    0 -0.53125435471E+00 -0.13725357204E+00 -0.55214917347E+01  0.55486881971E+01  0.00000000000E+00 0.  1.
          3    1    3    3  501    0 -0.28712281743E+02  0.14684891446E+02 -0.67093285743E+03  0.67170748122E+03  0.00000000000E+00 0.  1.
         -1    1    1    2    0  502  0.29243536098E+02 -0.14547637874E+02 -0.32231939990E+03  0.32397008152E+03  0.00000000000E+00 0. -1.
<mgrwt>
<rscale>  1 0.30000000E+03</rscale>
<asrwt>0</asrwt>
<pdfrwt beam="1">  1       21 0.44591037E-02 0.30000000E+03</pdfrwt>
<pdfrwt beam="2">0</pdfrwt>
<totfact> 0.34995977E+04</totfact>
</mgrwt>
</event>
<event>
 6    1  0.1273846E-001  0.3000000E+03  0.7818608E-02  0.1093470E+00
         21   -1    0    0  501  502  0.00000000000E+00  0.00000000000E+00  0.22664575167E+01  0.22664575167E+01  0.00000000000E+00 0. -1.
         13   -1    0    0    0    0 -0.00000000000E+00 -0.00000000000E+00 -0.10000000000E+04  0.10000000000E+04  0.00000000000E+00 0.  1.
    9000005    2    1    2  501    0 -0.51895087885E+01 -0.43573529533E+02 -0.69245685704E+03  0.69385206396E+03  0.29333126246E+01 0.  0.
         13    1    3    3    0    0 -0.36332033947E+01 -0.18302883341E+02 -0.29597387277E+03  0.29656150976E+03  0.00000000000E+00 0.  1.
          1    1    3    3  501    0 -0.15563053938E+01 -0.25270646192E+02 -0.39648298427E+03  0.39729055421E+03  0.00000000000E+00 0.  1.
         -3    1    1    2    0  502  0.51895087885E+01  0.43573529533E+02 -0.30527668544E+03  0.30841439355E+03  0.00000000000E+00 0. -1.
<mgrwt>
<rscale>  1 0.30000000E+03</rscale>
<asrwt>0</asrwt>
<pdfrwt beam="1">  1       21 0.82416811E-02 0.30000000E+03</pdfrwt>
<pdfrwt beam="2">0</pdfrwt>
<totfact> 0.12122682E+04</totfact>
</mgrwt>
</event>
<event>
 6    1  0.1273846E-001  0.3000000E+03  0.7818608E-02  0.1093470E+00
         21   -1    0    0  501  502  0.00000000000E+00  0.00000000000E+00  0.35927098832E+01  0.35927098832E+01  0.00000000000E+00 0. -1.
         13   -1    0    0    0    0 -0.00000000000E+00 -0.00000000000E+00 -0.10000000000E+04  0.10000000000E+04  0.00000000000E+00 0.  1.
    9000005    2    1    2  501    0  0.16362427245E+02 -0.26437490308E+02 -0.92715134584E+03  0.92767791728E+03  0.31670469347E+01 0.  0.
         13    1    3    3    0    0  0.39437198015E+01 -0.87729562320E+01 -0.30799863930E+03  0.30814879441E+03  0.00000000000E+00 0.  1.
          1    1    3    3  501    0  0.12418707444E+02 -0.17664534076E+02 -0.61915270654E+03  0.61952912287E+03  0.00000000000E+00 0.  1.
         -1    1    1    2    0  502 -0.16362427245E+02  0.26437490308E+02 -0.69255944275E+02  0.75914792607E+02  0.00000000000E+00 0. -1.
<mgrwt>
<rscale>  1 0.30000000E+03</rscale>
<asrwt>0</asrwt>
<pdfrwt beam="1">  1       21 0.13064427E-01 0.30000000E+03</pdfrwt>
<pdfrwt beam="2">0</pdfrwt>
<totfact> 0.53083752E+03</totfact>
</mgrwt>
</event>
<event>
 6    1  0.1273846E-001  0.3000000E+03  0.7818608E-02  0.1093470E+00
         21   -1    0    0  501  502  0.00000000000E+00  0.00000000000E+00  0.10406860029E+01  0.10406860029E+01  0.00000000000E+00 0. -1.
         13   -1    0    0    0    0 -0.00000000000E+00 -0.00000000000E+00 -0.10000000000E+04  0.10000000000E+04  0.00000000000E+00 0.  1.
    9000005    2    1    2  501    0 -0.93957014910E+01 -0.30772672969E+02 -0.49440732745E+03  0.49546384344E+03  0.32524008104E+01 0.  0.
         13    1    3    3    0    0 -0.66108661633E+01 -0.16108749719E+02 -0.26763331813E+03  0.26819915798E+03  0.00000000000E+00 0.  1.
          1    1    3    3  501    0 -0.27848353277E+01 -0.14663923249E+02 -0.22677400931E+03  0.22726468545E+03  0.00000000000E+00 0.  1.
         -1    1    1    2    0  502  0.93957014910E+01  0.30772672969E+02 -0.50455198655E+03  0.50557684257E+03  0.00000000000E+00 0. -1.
<mgrwt>
<rscale>  1 0.30000000E+03</rscale>
<asrwt>0</asrwt>
<pdfrwt beam="1">  1       21 0.37843207E-02 0.30000000E+03</pdfrwt>
<pdfrwt beam="2">0</pdfrwt>
<totfact> 0.46155578E+04</totfact>
</mgrwt>
</event>
<event>
 6    1  0.1273846E-001  0.3000000E+03  0.7818608E-02  0.1093470E+00
         21   -1    0    0  501  502  0.00000000000E+00  0.00000000000E+00  0.11187735568E+01  0.11187735568E+01  0.00000000000E+00 0. -1.
         13   -1    0    0    0    0 -0.00000000000E+00 -0.00000000000E+00 -0.10000000000E+04  0.10000000000E+04  0.00000000000E+00 0.  1.
    9000005    2    1    2  501    0 -0.18386923409E+02  0.26380542178E+02 -0.63419303946E+03  0.63501566556E+03  0.31736811804E+01 0.  0.
         13    1    3    3    0    0 -0.15051168881E+02  0.19303658186E+02 -0.47347349466E+03  0.47410580997E+03  0.00000000000E+00 0.  1.
          1    1    3    3  501    0 -0.33357545280E+01  0.70768839917E+01 -0.16071954480E+03  0.16090985559E+03  0.00000000000E+00 0.  1.
         -1    1    1    2    0  502  0.18386923409E+02 -0.26380542178E+02 -0.36468818698E+03  0.36610310799E+03  0.00000000000E+00 0. -1.
<mgrwt>
<rscale>  1 0.30000000E+03</rscale>
<asrwt>0</asrwt>
<pdfrwt beam="1">  1       21 0.40682761E-02 0.30000000E+03</pdfrwt>
<pdfrwt beam="2">0</pdfrwt>
<totfact> 0.40865291E+04</totfact>
</mgrwt>
</event>
<event>
 6    1  0.1273846E-001  0.3000000E+03  0.7818608E-02  0.1093470E+00
         21   -1    0    0  501  502  0.00000000000E+00  0.00000000000E+00  0.22590778198E+01  0.22590778198E+01  0.00000000000E+00 0. -1.
         13   -1    0    0    0    0 -0.00000000000E+00 -0.00000000000E+00 -0.10000000000E+04  0.10000000000E+04  0.00000000000E+00 0.  1.
    9000005    2    1    2  501    0 -0.96816333782E+01 -0.39331213894E+02 -0.23845299688E+03  0.24189151413E+03  0.33157915748E+01 0.  0.
         13    1    3    3    0    0 -0.81302444640E+00 -0.83506015035E+01 -0.45864217482E+02  0.46625315006E+02  0.00000000000E+00 0.  1.
          3    1    3    3  501    0 -0.88686089318E+01 -0.30980612391E+02 -0.19258877940E+03  0.19526619912E+03  0.00000000000E+00 0.  1.
         -1    1    1    2    0  502  0.96816333782E+01  0.39331213894E+02 -0.75928792530E+03  0.76036756369E+03  0.00000000000E+00 0. -1.
<mgrwt>
<rscale>  1 0.30000000E+03</rscale>
<asrwt>0</asrwt>
<pdfrwt beam="1">  1       21 0.82148458E-02 0.30000000E+03</pdfrwt>
<pdfrwt beam="2">0</pdfrwt>
<totfact> 0.12192444E+04</totfact>
</mgrwt>
</event>
<event>
 6    1  0.1273846E-001  0.3000000E+03  0.7818608E-02  0.1093470E+00
         21   -1    0    0  501  502  0.00000000000E+00  0.00000000000E+00  0.27732838451E+01  0.27732838451E+01  0.00000000000E+00 0. -1.
         13   -1    0    0    0    0 -0.00000000000E+00 -0.00000000000E+00 -0.10000000000E+04  0.10000000000E+04  0.00000000000E+00 0.  1.
    9000005    2    1    2  501    0  0.13019774807E+02  0.28416456375E+02 -0.90201747915E+03  0.90256446018E+03  0.31721542117E+01 0.  0.
         13    1    3    3    0    0  0.66402826468E+01  0.10805400099E+02 -0.35702374889E+03  0.35724894303E+03  0.00000000000E+00 0.  1.
          1    1    3    3  501    0  0.63794921600E+01  0.17611056276E+02 -0.54499373026E+03  0.54531551715E+03  0.00000000000E+00 0.  1.
         -3    1    1    2    0  502 -0.13019774807E+02 -0.28416456375E+02 -0.95209237010E+02  0.10020882367E+03  0.00000000000E+00 0. -1.
<mgrwt>
<rscale>  1 0.30000000E+03</rscale>
<asrwt>0</asrwt>
<pdfrwt beam="1">  1       21 0.10084690E-01 0.30000000E+03</pdfrwt>
<pdfrwt beam="2">0</pdfrwt>
<totfact> 0.84744959E+03</totfact>
</mgrwt>
</event>
<event>
 6    1  0.1273846E-001  0.3000000E+03  0.7818608E-02  0.1093470E+00
         21   -1    0    0  501  502  0.00000000000E+00  0.00000000000E+00  0.36788782946E+01  0.36788782946E+01  0.00000000000E+00 0. -1.
         13   -1    0    0    0    0 -0.00000000000E+00 -0.00000000000E+00 -0.10000000000E+04  0.10000000000E+04  0.00000000000E+00 0.  1.
    9000005    2    1    2  501    0 -0.52069564764E+02 -0.23957040287E+02 -0.66173195654E+03  0.66421593658E+03  0.29066718723E+01 0.  0.
         13    1    3    3    0    0 -0.33394658941E+02 -0.16379200612E+02 -0.44105059275E+03  0.44261620714E+03  0.00000000000E+00 0.  1.
          3    1    3    3  501    0 -0.18674905823E+02 -0.75778396754E+01 -0.22068136380E+03  0.22159972944E+03  0.00000000000E+00 0.  1.
         -3    1    1    2    0  502  0.52069564764E+02  0.23957040287E+02 -0.33458916516E+03  0.33946294171E+03  0.00000000000E+00 0. -1.
<mgrwt>
<rscale>  1 0.30000000E+03</rscale>
<asrwt>0</asrwt>
<pdfrwt beam="1">  1       21 0.13377767E-01 0.30000000E+03</pdfrwt>
<pdfrwt beam="2">0</pdfrwt>
<totfact> 0.50832459E+03</totfact>
</mgrwt>
</event>
<event>
 6    1  0.1273846E-001  0.3000000E+03  0.7818608E-02  0.1093470E+00
         21   -1    0    0  501  502  0.00000000000E+00  0.00000000000E+00  0.55439157540E+02  0.55439157540E+02  0.00000000000E+00 0. -1.
         13   -1    0    0    0    0 -0.00000000000E+00 -0.00000000000E+00 -0.10000000000E+04  0.10000000000E+04  0.00000000000E+00 0.  1.
    9000005    2    1    2  501    0 -0.27570915966E+02 -0.22519508851E+02 -0.99393097746E+03  0.99457296072E+03  0.30500084153E+01 0.  0.
         13    1    3    3    0    0 -0.22055343167E+02 -0.19262432814E+02 -0.83312469563E+03  0.83363915332E+03  0.00000000000E+00 0.  1.
          3    1    3    3  501    0 -0.55155727992E+01 -0.32570760369E+01 -0.16080628183E+03  0.16093380740E+03  0.00000000000E+00 0.  1.
         -3    1    1    2    0  502  0.27570915966E+02  0.22519508851E+02  0.49370134998E+02  0.60866196824E+02  0.00000000000E+00 0. -1.
<mgrwt>
<rscale>  1 0.30000000E+03</rscale>
<asrwt>0</asrwt>
<pdfrwt beam="1">  1       21 0.20159736E+00 0.30000000E+03</pdfrwt>
<pdfrwt beam="2">0</pdfrwt>
<totfact> 0.91952675E+00</totfact>
</mgrwt>
</event>
<event>
 6    1  0.1273846E-001  0.3000000E+03  0.7818608E-02  0.1093470E+00
         21   -1    0    0  501  502  0.00000000000E+00  0.00000000000E+00  0.21221350373E+01  0.21221350373E+01  0.00000000000E+00 0. -1.
         13   -1    0    0    0    0 -0.00000000000E+00 -0.00000000000E+00 -0.10000000000E+04  0.10000000000E+04  0.00000000000E+00 0.  1.
    9000005    2    1    2  501    0 -0.37957866104E+02  0.15259088848E+02 -0.72812438828E+03  0.72928412894E+03  0.40714268071E+01 0.  0.
         13    1    3    3    0    0 -0.28805568408E+02  0.13149366283E+02 -0.54517872950E+03  0.54609753131E+03  0.00000000000E+00 0.  1.
          3    1    3    3  501    0 -0.91522976961E+01  0.21097225650E+01 -0.18294565878E+03  0.18318659762E+03  0.00000000000E+00 0.  1.
         -1    1    1    2    0  502  0.37957866104E+02 -0.15259088848E+02 -0.26975347668E+03  0.27283800610E+03  0.00000000000E+00 0. -1.
<mgrwt>
<rscale>  1 0.30000000E+03</rscale>
<asrwt>0</asrwt>
<pdfrwt beam="1">  1       21 0.77168710E-02 0.30000000E+03</pdfrwt>
<pdfrwt beam="2">0</pdfrwt>
<totfact> 0.13607619E+04</totfact>
</mgrwt>
</event>
<event>
 6    1  0.1273846E-001  0.3000000E+03  0.7818608E-02  0.1093470E+00
         21   -1    0    0  501  502  0.00000000000E+00  0.00000000000E+00  0.16874614640E+01  0.16874614640E+01  0.00000000000E+00 0. -1.
         13   -1    0    0    0    0 -0.00000000000E+00 -0.00000000000E+00 -0.10000000000E+04  0.10000000000E+04  0.00000000000E+00 0.  1.
    9000005    2    1    2  501    0 -0.32973991547E+02 -0.23032719017E+02 -0.59756139175E+03  0.59892292490E+03  0.33560089045E+01 0.  0.
         13    1    3    3    0    0 -0.32228711573E+02 -0.21963437727E+02 -0.57175866073E+03  0.57308729576E+03  0.00000000000E+00 0.  1.
          3    1    3    3  501    0 -0.74527997422E+00 -0.10692812899E+01 -0.25802731019E+02  0.25835629134E+02  0.00000000000E+00 0.  1.
         -3    1    1    2    0  502  0.32973991547E+02  0.23032719017E+02 -0.40075114679E+03  0.40276453657E+03  0.00000000000E+00 0. -1.
<mgrwt>
<rscale>  1 0.30000000E+03</rscale>
<asrwt>0</asrwt>
<pdfrwt beam="1">  1       21 0.61362364E-02 0.30000000E+03</pdfrwt>
<pdfrwt beam="2">0</pdfrwt>
<totfact> 0.20270964E+04</totfact>
</mgrwt>
</event>
<event>
 6    1  0.1273846E-001  0.3000000E+03  0.7818608E-02  0.1093470E+00
         21   -1    0    0  501  502  0.00000000000E+00  0.00000000000E+00  0.63093004583E+02  0.63093004583E+02  0.00000000000E+00 0. -1.
         13   -1    0    0    0    0 -0.00000000000E+00 -0.00000000000E+00 -0.10000000000E+04  0.10000000000E+04  0.00000000000E+00 0.  1.
    9000005    2    1    2  501    0 -0.13298182355E+03 -0.16821885883E+03 -0.19170356012E+03  0.28765125316E+03  0.33524056247E+01 0.  0.
         13    1    3    3    0    0 -0.64570646491E+02 -0.83680115923E+02 -0.95998579856E+02  0.14278465437E+03  0.00000000000E+00 0.  1.
          1    1    3    3  501    0 -0.68411177058E+02 -0.84538742911E+02 -0.95704980262E+02  0.14486659879E+03  0.00000000000E+00 0.  1.
         -3    1    1    2    0  502  0.13298182355E+03  0.16821885883E+03 -0.74520343530E+03  0.77544175142E+03  0.00000000000E+00 0. -1.
<mgrwt>
<rscale>  1 0.30000000E+03</rscale>
<asrwt>0</asrwt>
<pdfrwt beam="1">  1       21 0.22942959E+00 0.30000000E+03</pdfrwt>
<pdfrwt beam="2">0</pdfrwt>
<totfact> 0.57546452E+00</totfact>
</mgrwt>
</event>
<event>
 6    1  0.1273846E-001  0.3000000E+03  0.7818608E-02  0.1093470E+00
         21   -1    0    0  501  502  0.00000000000E+00  0.00000000000E+00  0.12181353108E+01  0.12181353108E+01  0.00000000000E+00 0. -1.
         13   -1    0    0    0    0 -0.00000000000E+00 -0.00000000000E+00 -0.10000000000E+04  0.10000000000E+04  0.00000000000E+00 0.  1.
    9000005    2    1    2  501    0 -0.30884956491E+02 -0.10680325482E+01 -0.73045370694E+03  0.73111626291E+03  0.36538588383E+01 0.  0.
         13    1    3    3    0    0 -0.84816110964E+01 -0.16906245948E+01 -0.22403731131E+03  0.22420417658E+03  0.00000000000E+00 0.  1.
          1    1    3    3  501    0 -0.22403345395E+02  0.62259204659E+00 -0.50641639563E+03  0.50691208633E+03  0.00000000000E+00 0.  1.
         -1    1    1    2    0  502  0.30884956491E+02  0.10680325482E+01 -0.26832815775E+03  0.27010187240E+03  0.00000000000E+00 0. -1.
<mgrwt>
<rscale>  1 0.30000000E+03</rscale>
<asrwt>0</asrwt>
<pdfrwt beam="1">  1       21 0.44295923E-02 0.30000000E+03</pdfrwt>
<pdfrwt beam="2">0</pdfrwt>
<totfact> 0.35392147E+04</totfact>
</mgrwt>
</event>
<event>
 6    1  0.1273846E-001  0.3000000E+03  0.7818608E-02  0.1093470E+00
         21   -1    0    0  501  502  0.00000000000E+00  0.00000000000E+00  0.11294891163E+01  0.11294891163E+01  0.00000000000E+00 0. -1.
         13   -1    0    0    0    0 -0.00000000000E+00 -0.00000000000E+00 -0.10000000000E+04  0.10000000000E+04  0.00000000000E+00 0.  1.
    9000005    2    1    2  501    0 -0.13067561589E+00 -0.32018914412E+02 -0.64746212693E+03  0.64826537891E+03  0.39455966369E+01 0.  0.
         13    1    3    3    0    0 -0.16056259610E+01 -0.91344886393E+01 -0.16978916336E+03  0.17004227977E+03  0.00000000000E+00 0.  1.
          1    1    3    3  501    0  0.14749503451E+01 -0.22884425773E+02 -0.47767296357E+03  0.47822309914E+03  0.00000000000E+00 0.  1.
         -1    1    1    2    0  502  0.13067561589E+00  0.32018914412E+02 -0.35140838396E+03  0.35286411021E+03  0.00000000000E+00 0. -1.
<mgrwt>
<rscale>  1 0.30000000E+03</rscale>
<asrwt>0</asrwt>
<pdfrwt beam="1">  1       21 0.41072418E-02 0.30000000E+03</pdfrwt>
<pdfrwt beam="2">0</pdfrwt>
<totfact> 0.40213784E+04</totfact>
</mgrwt>
</event>
<event>
 6    1  0.1273846E-001  0.3000000E+03  0.7818608E-02  0.1093470E+00
         21   -1    0    0  501  502  0.00000000000E+00  0.00000000000E+00  0.11251801293E+01  0.11251801293E+01  0.00000000000E+00 0. -1.
         13   -1    0    0    0    0 -0.00000000000E+00 -0.00000000000E+00 -0.10000000000E+04  0.10000000000E+04  0.00000000000E+00 0.  1.
    9000005    2    1    2  501    0 -0.28745956720E+02  0.10517955938E+02 -0.70311787983E+03  0.70378846022E+03  0.25468364156E+01 0.  0.
         13    1    3    3    0    0 -0.17461403498E+02  0.76056102594E+01 -0.44690864769E+03  0.44731430258E+03  0.00000000000E+00 0.  1.
          3    1    3    3  501    0 -0.11284553222E+02  0.29123456787E+01 -0.25620923214E+03  0.25647415763E+03  0.00000000000E+00 0.  1.
         -3    1    1    2    0  502  0.28745956720E+02 -0.10517955938E+02 -0.29575694004E+03  0.29733671991E+03  0.00000000000E+00 0. -1.
<mgrwt>
<rscale>  1 0.30000000E+03</rscale>
<asrwt>0</asrwt>
<pdfrwt beam="1">  1       21 0.40915727E-02 0.30000000E+03</pdfrwt>
<pdfrwt beam="2">0</pdfrwt>
<totfact> 0.40473809E+04</totfact>
</mgrwt>
</event>
<event>
 6    1  0.1273846E-001  0.3000000E+03  0.7818608E-02  0.1093470E+00
         21   -1    0    0  501  502  0.00000000000E+00  0.00000000000E+00  0.16402687100E+01  0.16402687100E+01  0.00000000000E+00 0. -1.
         13   -1    0    0    0    0 -0.00000000000E+00 -0.00000000000E+00 -0.10000000000E+04  0.10000000000E+04  0.00000000000E+00 0.  1.
    9000005    2    1    2  501    0 -0.22987374037E+02 -0.21657865597E+02 -0.20349997597E+03  0.20615330267E+03  0.94584076848E+01 0.  0.
         13    1    3    3    0    0  0.26151410266E+00  0.54238102027E+00 -0.85130444597E+01  0.85343126712E+01  0.00000000000E+00 0.  1.
          1    1    3    3  501    0 -0.23248888139E+02 -0.22200246617E+02 -0.19498693151E+03  0.19761899000E+03  0.00000000000E+00 0.  1.
         -1    1    1    2    0  502  0.22987374037E+02  0.21657865597E+02 -0.79485975532E+03  0.79548696604E+03  0.00000000000E+00 0. -1.
<mgrwt>
<rscale>  1 0.30000000E+03</rscale>
<asrwt>0</asrwt>
<pdfrwt beam="1">  1       21 0.59646261E-02 0.30000000E+03</pdfrwt>
<pdfrwt beam="2">0</pdfrwt>
<totfact> 0.21287628E+04</totfact>
</mgrwt>
</event>
<event>
 6    1  0.1273846E-001  0.3000000E+03  0.7818608E-02  0.1093470E+00
         21   -1    0    0  501  502  0.00000000000E+00  0.00000000000E+00  0.16814571470E+01  0.16814571470E+01  0.00000000000E+00 0. -1.
         13   -1    0    0    0    0 -0.00000000000E+00 -0.00000000000E+00 -0.10000000000E+04  0.10000000000E+04  0.00000000000E+00 0.  1.
    9000005    2    1    2  501    0 -0.31463577716E+02  0.21687747622E+02 -0.67947120674E+03  0.68055229487E+03  0.31607185381E+01 0.  0.
         13    1    3    3    0    0 -0.18497294699E+01  0.21663289302E+01 -0.44237234965E+02  0.44328855585E+02  0.00000000000E+00 0.  1.
          3    1    3    3  501    0 -0.29613848246E+02  0.19521418692E+02 -0.63523397178E+03  0.63622343928E+03  0.00000000000E+00 0.  1.
         -1    1    1    2    0  502  0.31463577716E+02 -0.21687747622E+02 -0.31884733611E+03  0.32112916228E+03  0.00000000000E+00 0. -1.
<mgrwt>
<rscale>  1 0.30000000E+03</rscale>
<asrwt>0</asrwt>
<pdfrwt beam="1">  1       21 0.61144025E-02 0.30000000E+03</pdfrwt>
<pdfrwt beam="2">0</pdfrwt>
<totfact> 0.20396073E+04</totfact>
</mgrwt>
</event>
<event>
 6    1  0.1273846E-001  0.3000000E+03  0.7818608E-02  0.1093470E+00
         21   -1    0    0  501  502  0.00000000000E+00  0.00000000000E+00  0.24084911578E+01  0.24084911578E+01  0.00000000000E+00 0. -1.
         13   -1    0    0    0    0 -0.00000000000E+00 -0.00000000000E+00 -0.10000000000E+04  0.10000000000E+04  0.00000000000E+00 0.  1.
    9000005    2    1    2  501    0  0.87979414802E+01 -0.35214977765E+02 -0.16547900496E+03  0.16950470467E+03  0.55718388836E+01 0.  0.
         13    1    3    3    0    0  0.59616844992E+01 -0.31442583738E+02 -0.14409647772E+03  0.14760749522E+03  0.00000000000E+00 0.  1.
          3    1    3    3  501    0  0.28362569810E+01 -0.37723940272E+01 -0.21382527241E+02  0.21897209447E+02  0.00000000000E+00 0.  1.
         -1    1    1    2    0  502 -0.87979414802E+01  0.35214977765E+02 -0.83211250388E+03  0.83290378649E+03  0.00000000000E+00 0. -1.
<mgrwt>
<rscale>  1 0.30000000E+03</rscale>
<asrwt>0</asrwt>
<pdfrwt beam="1">  1       21 0.87581681E-02 0.30000000E+03</pdfrwt>
<pdfrwt beam="2">0</pdfrwt>
<totfact> 0.10890545E+04</totfact>
</mgrwt>
</event>
<event>
 6    1  0.1273846E-001  0.3000000E+03  0.7818608E-02  0.1093470E+00
         21   -1    0    0  501  502  0.00000000000E+00  0.00000000000E+00  0.15431710601E+01  0.15431710601E+01  0.00000000000E+00 0. -1.
         13   -1    0    0    0    0 -0.00000000000E+00 -0.00000000000E+00 -0.10000000000E+04  0.10000000000E+04  0.00000000000E+00 0.  1.
    9000005    2    1    2  501    0 -0.33626894041E+02  0.30636545945E+01 -0.24594148943E+03  0.24827065053E+03  0.33084303138E+01 0.  0.
         13    1    3    3    0    0 -0.23643639200E+02  0.23924896807E+01 -0.18353405832E+03  0.18506619422E+03  0.00000000000E+00 0.  1.
          1    1    3    3  501    0 -0.99832548401E+01  0.67116491380E+00 -0.62407431113E+02  0.63204456311E+02  0.00000000000E+00 0.  1.
         -1    1    1    2    0  502  0.33626894041E+02 -0.30636545945E+01 -0.75251533951E+03  0.75327252053E+03  0.00000000000E+00 0. -1.
<mgrwt>
<rscale>  1 0.30000000E+03</rscale>
<asrwt>0</asrwt>
<pdfrwt beam="1">  1       21 0.56115430E-02 0.30000000E+03</pdfrwt>
<pdfrwt beam="2">0</pdfrwt>
<totfact> 0.23645306E+04</totfact>
</mgrwt>
</event>
<event>
 6    1  0.1273846E-001  0.3000000E+03  0.7818608E-02  0.1093470E+00
         21   -1    0    0  501  502  0.00000000000E+00  0.00000000000E+00  0.18039527002E+01  0.18039527002E+01  0.00000000000E+00 0. -1.
         13   -1    0    0    0    0 -0.00000000000E+00 -0.00000000000E+00 -0.10000000000E+04  0.10000000000E+04  0.00000000000E+00 0.  1.
    9000005    2    1    2  501    0 -0.36108596616E+02 -0.15227064266E+02 -0.69118635399E+03  0.69230331292E+03  0.30995011956E+01 0.  0.
         13    1    3    3    0    0 -0.53238959132E+00 -0.44111928391E+00 -0.20189507376E+02  0.20201342356E+02  0.00000000000E+00 0.  1.
          3    1    3    3  501    0 -0.35576207025E+02 -0.14785944982E+02 -0.67099684661E+03  0.67210197057E+03  0.00000000000E+00 0.  1.
         -3    1    1    2    0  502  0.36108596616E+02  0.15227064266E+02 -0.30700969331E+03  0.30950063978E+03  0.00000000000E+00 0. -1.
<mgrwt>
<rscale>  1 0.30000000E+03</rscale>
<asrwt>0</asrwt>
<pdfrwt beam="1">  1       21 0.65598418E-02 0.30000000E+03</pdfrwt>
<pdfrwt beam="2">0</pdfrwt>
<totfact> 0.18061104E+04</totfact>
</mgrwt>
</event>
<event>
 6    1  0.1273846E-001  0.3000000E+03  0.7818608E-02  0.1093470E+00
         21   -1    0    0  501  502  0.00000000000E+00  0.00000000000E+00  0.19291622018E+01  0.19291622018E+01  0.00000000000E+00 0. -1.
         13   -1    0    0    0    0 -0.00000000000E+00 -0.00000000000E+00 -0.10000000000E+04  0.10000000000E+04  0.00000000000E+00 0.  1.
    9000005    2    1    2  501    0 -0.32192672220E+02  0.28259176529E+02 -0.60894047857E+03  0.61044814647E+03  0.18665178714E+01 0.  0.
         13    1    3    3    0    0 -0.18037057751E+02  0.14756332179E+02 -0.32451594020E+03  0.32535162554E+03  0.00000000000E+00 0.  1.
          3    1    3    3  501    0 -0.14155614469E+02  0.13502844350E+02 -0.28442453836E+03  0.28509652094E+03  0.00000000000E+00 0.  1.
         -3    1    1    2    0  502  0.32192672220E+02 -0.28259176529E+02 -0.38913035923E+03  0.39148101573E+03  0.00000000000E+00 0. -1.
<mgrwt>
<rscale>  1 0.30000000E+03</rscale>
<asrwt>0</asrwt>
<pdfrwt beam="1">  1       21 0.70151501E-02 0.30000000E+03</pdfrwt>
<pdfrwt beam="2">0</pdfrwt>
<totfact> 0.16074686E+04</totfact>
</mgrwt>
</event>
<event>
 6    1  0.1273846E-001  0.3000000E+03  0.7818608E-02  0.1093470E+00
         21   -1    0    0  501  502  0.00000000000E+00  0.00000000000E+00  0.12460920106E+01  0.12460920106E+01  0.00000000000E+00 0. -1.
         13   -1    0    0    0    0 -0.00000000000E+00 -0.00000000000E+00 -0.10000000000E+04  0.10000000000E+04  0.00000000000E+00 0.  1.
    9000005    2    1    2  501    0  0.26832201461E+02  0.18779851471E+02 -0.31804593310E+03  0.31975067975E+03  0.38251511877E+01 0.  0.
         13    1    3    3    0    0  0.19825799412E+02  0.12393692461E+02 -0.21384339390E+03  0.21511778878E+03  0.00000000000E+00 0.  1.
          1    1    3    3  501    0  0.70064020485E+01  0.63861590097E+01 -0.10420253920E+03  0.10463289097E+03  0.00000000000E+00 0.  1.
         -1    1    1    2    0  502 -0.26832201461E+02 -0.18779851471E+02 -0.68070797489E+03  0.68149541226E+03  0.00000000000E+00 0. -1.
<mgrwt>
<rscale>  1 0.30000000E+03</rscale>
<asrwt>0</asrwt>
<pdfrwt beam="1">  1       21 0.45312532E-02 0.30000000E+03</pdfrwt>
<pdfrwt beam="2">0</pdfrwt>
<totfact> 0.34055749E+04</totfact>
</mgrwt>
</event>
<event>
 6    1  0.1273846E-001  0.3000000E+03  0.7818608E-02  0.1093470E+00
         21   -1    0    0  501  502  0.00000000000E+00  0.00000000000E+00  0.12054214406E+01  0.12054214406E+01  0.00000000000E+00 0. -1.
         13   -1    0    0    0    0 -0.00000000000E+00 -0.00000000000E+00 -0.10000000000E+04  0.10000000000E+04  0.00000000000E+00 0.  1.
    9000005    2    1    2  501    0 -0.10023855614E+01  0.33929674264E+02 -0.59890187608E+03  0.59987463384E+03  0.37271424574E+01 0.  0.
         13    1    3    3    0    0 -0.18459510425E+01  0.13086214137E+02 -0.21355666621E+03  0.21396519861E+03  0.00000000000E+00 0.  1.
          3    1    3    3  501    0  0.84356548115E+00  0.20843460128E+02 -0.38534520987E+03  0.38590943523E+03  0.00000000000E+00 0.  1.
         -1    1    1    2    0  502  0.10023855614E+01 -0.33929674264E+02 -0.39989270248E+03  0.40133078760E+03  0.00000000000E+00 0. -1.
<mgrwt>
<rscale>  1 0.30000000E+03</rscale>
<asrwt>0</asrwt>
<pdfrwt beam="1">  1       21 0.43833599E-02 0.30000000E+03</pdfrwt>
<pdfrwt beam="2">0</pdfrwt>
<totfact> 0.36026868E+04</totfact>
</mgrwt>
</event>
<event>
 6    1  0.1273846E-001  0.3000000E+03  0.7818608E-02  0.1093470E+00
         21   -1    0    0  501  502  0.00000000000E+00  0.00000000000E+00  0.60545336306E+01  0.60545336306E+01  0.00000000000E+00 0. -1.
         13   -1    0    0    0    0 -0.00000000000E+00 -0.00000000000E+00 -0.10000000000E+04  0.10000000000E+04  0.00000000000E+00 0.  1.
    9000005    2    1    2  501    0 -0.55265265731E+02  0.52027122860E+01 -0.84937856626E+03  0.85119683631E+03  0.32844352626E+01 0.  0.
         13    1    3    3    0    0 -0.16452472067E+02  0.23372020772E+01 -0.27422906823E+03  0.27473210262E+03  0.00000000000E+00 0.  1.
          1    1    3    3  501    0 -0.38812793664E+02  0.28655102088E+01 -0.57514949803E+03  0.57646473369E+03  0.00000000000E+00 0.  1.
         -3    1    1    2    0  502  0.55265265731E+02 -0.52027122860E+01 -0.14456690011E+03  0.15485769732E+03  0.00000000000E+00 0. -1.
<mgrwt>
<rscale>  1 0.30000000E+03</rscale>
<asrwt>0</asrwt>
<pdfrwt beam="1">  1       21 0.22016532E-01 0.30000000E+03</pdfrwt>
<pdfrwt beam="2">0</pdfrwt>
<totfact> 0.19957046E+03</totfact>
</mgrwt>
</event>
<event>
 6    1  0.1273846E-001  0.3000000E+03  0.7818608E-02  0.1093470E+00
         21   -1    0    0  501  502  0.00000000000E+00  0.00000000000E+00  0.18468746491E+01  0.18468746491E+01  0.00000000000E+00 0. -1.
         13   -1    0    0    0    0 -0.00000000000E+00 -0.00000000000E+00 -0.10000000000E+04  0.10000000000E+04  0.00000000000E+00 0.  1.
    9000005    2    1    2  501    0 -0.78072785688E+01  0.36720698327E+02 -0.74212415301E+03  0.74308018830E+03  0.32472271547E+01 0.  0.
         13    1    3    3    0    0  0.26589288242E+00  0.13316070423E+01 -0.22109315405E+02  0.22150975238E+02  0.00000000000E+00 0.  1.
          1    1    3    3  501    0 -0.80731714512E+01  0.35389091285E+02 -0.72001483761E+03  0.72092921307E+03  0.00000000000E+00 0.  1.
         -3    1    1    2    0  502  0.78072785688E+01 -0.36720698327E+02 -0.25602897234E+03  0.25876668634E+03  0.00000000000E+00 0. -1.
<mgrwt>
<rscale>  1 0.30000000E+03</rscale>
<asrwt>0</asrwt>
<pdfrwt beam="1">  1       21 0.67159220E-02 0.30000000E+03</pdfrwt>
<pdfrwt beam="2">0</pdfrwt>
<totfact> 0.17339632E+04</totfact>
</mgrwt>
</event>
<event>
 6    1  0.1273846E-001  0.3000000E+03  0.7818608E-02  0.1093470E+00
         21   -1    0    0  501  502  0.00000000000E+00  0.00000000000E+00  0.12093705734E+01  0.12093705734E+01  0.00000000000E+00 0. -1.
         13   -1    0    0    0    0 -0.00000000000E+00 -0.00000000000E+00 -0.10000000000E+04  0.10000000000E+04  0.00000000000E+00 0.  1.
    9000005    2    1    2  501    0  0.26308264471E+02  0.22161787965E+02 -0.56437709747E+03  0.56543605064E+03  0.36262351057E+01 0.  0.
         13    1    3    3    0    0  0.22256064156E+02  0.17337109118E+02 -0.47512166888E+03  0.47595851498E+03  0.00000000000E+00 0.  1.
          1    1    3    3  501    0  0.40522003148E+01  0.48246788470E+01 -0.89255428594E+02  0.89477535655E+02  0.00000000000E+00 0.  1.
         -3    1    1    2    0  502 -0.26308264471E+02 -0.22161787965E+02 -0.43441353195E+03  0.43577331994E+03  0.00000000000E+00 0. -1.
<mgrwt>
<rscale>  1 0.30000000E+03</rscale>
<asrwt>0</asrwt>
<pdfrwt beam="1">  1       21 0.43977204E-02 0.30000000E+03</pdfrwt>
<pdfrwt beam="2">0</pdfrwt>
<totfact> 0.35827841E+04</totfact>
</mgrwt>
</event>
<event>
 6    1  0.1273846E-001  0.3000000E+03  0.7818608E-02  0.1093470E+00
         21   -1    0    0  501  502  0.00000000000E+00  0.00000000000E+00  0.11739131982E+01  0.11739131982E+01  0.00000000000E+00 0. -1.
         13   -1    0    0    0    0 -0.00000000000E+00 -0.00000000000E+00 -0.10000000000E+04  0.10000000000E+04  0.00000000000E+00 0.  1.
    9000005    2    1    2  501    0  0.21443836715E+02 -0.22779259162E+02 -0.70143150347E+03  0.70213834512E+03  0.36563432568E+01 0.  0.
         13    1    3    3    0    0  0.11732693216E+02 -0.99507289343E+01 -0.32922727628E+03  0.32958651754E+03  0.00000000000E+00 0.  1.
          1    1    3    3  501    0  0.97111434994E+01 -0.12828530228E+02 -0.37220422719E+03  0.37255182758E+03  0.00000000000E+00 0.  1.
         -1    1    1    2    0  502 -0.21443836715E+02  0.22779259162E+02 -0.29739458333E+03  0.29903556808E+03  0.00000000000E+00 0. -1.
<mgrwt>
<rscale>  1 0.30000000E+03</rscale>
<asrwt>0</asrwt>
<pdfrwt beam="1">  1       21 0.42687843E-02 0.30000000E+03</pdfrwt>
<pdfrwt beam="2">0</pdfrwt>
<totfact> 0.37678055E+04</totfact>
</mgrwt>
</event>
<event>
 6    1  0.1273846E-001  0.3000000E+03  0.7818608E-02  0.1093470E+00
         21   -1    0    0  501  502  0.00000000000E+00  0.00000000000E+00  0.22321809702E+01  0.22321809702E+01  0.00000000000E+00 0. -1.
         13   -1    0    0    0    0 -0.00000000000E+00 -0.00000000000E+00 -0.10000000000E+04  0.10000000000E+04  0.00000000000E+00 0.  1.
    9000005    2    1    2  501    0  0.28838705395E+02  0.21641693273E+02 -0.82250050214E+03  0.82329457680E+03  0.26173174015E+01 0.  0.
         13    1    3    3    0    0  0.23827086935E+02  0.18434058925E+02 -0.70541830921E+03  0.70606128315E+03  0.00000000000E+00 0.  1.
          1    1    3    3  501    0  0.50116184609E+01  0.32076343486E+01 -0.11708219293E+03  0.11723329365E+03  0.00000000000E+00 0.  1.
         -1    1    1    2    0  502 -0.28838705395E+02 -0.21641693273E+02 -0.17526731689E+03  0.17893760417E+03  0.00000000000E+00 0. -1.
<mgrwt>
<rscale>  1 0.30000000E+03</rscale>
<asrwt>0</asrwt>
<pdfrwt beam="1">  1       21 0.81170388E-02 0.30000000E+03</pdfrwt>
<pdfrwt beam="2">0</pdfrwt>
<totfact> 0.12451987E+04</totfact>
</mgrwt>
</event>
<event>
 6    1  0.1273846E-001  0.3000000E+03  0.7818608E-02  0.1093470E+00
         21   -1    0    0  501  502  0.00000000000E+00  0.00000000000E+00  0.14624537482E+01  0.14624537482E+01  0.00000000000E+00 0. -1.
         13   -1    0    0    0    0 -0.00000000000E+00 -0.00000000000E+00 -0.10000000000E+04  0.10000000000E+04  0.00000000000E+00 0.  1.
    9000005    2    1    2  501    0 -0.12681803870E+02  0.29072732516E+02 -0.77482982201E+03  0.77551733252E+03  0.77348577153E+01 0.  0.
         13    1    3    3    0    0 -0.69290351019E+01  0.98737406233E+01 -0.22600371037E+03  0.22632538386E+03  0.00000000000E+00 0.  1.
          3    1    3    3  501    0 -0.57527687682E+01  0.19198991892E+02 -0.54882611165E+03  0.54919194865E+03  0.00000000000E+00 0.  1.
         -3    1    1    2    0  502  0.12681803870E+02 -0.29072732516E+02 -0.22370772424E+03  0.22594512123E+03  0.00000000000E+00 0. -1.
<mgrwt>
<rscale>  1 0.30000000E+03</rscale>
<asrwt>0</asrwt>
<pdfrwt beam="1">  1       21 0.53180248E-02 0.30000000E+03</pdfrwt>
<pdfrwt beam="2">0</pdfrwt>
<totfact> 0.25925864E+04</totfact>
</mgrwt>
</event>
<event>
 6    1  0.1273846E-001  0.3000000E+03  0.7818608E-02  0.1093470E+00
         21   -1    0    0  501  502  0.00000000000E+00  0.00000000000E+00  0.18699073984E+01  0.18699073984E+01  0.00000000000E+00 0. -1.
         13   -1    0    0    0    0 -0.00000000000E+00 -0.00000000000E+00 -0.10000000000E+04  0.10000000000E+04  0.00000000000E+00 0.  1.
    9000005    2    1    2  501    0  0.32109799638E+02 -0.12829201667E+02 -0.79947896988E+03  0.80023187476E+03  0.29668925684E+01 0.  0.
         13    1    3    3    0    0  0.17837306058E+02 -0.83320999789E+01 -0.43210111867E+03  0.43254938462E+03  0.00000000000E+00 0.  1.
          3    1    3    3  501    0  0.14272493580E+02 -0.44971016877E+01 -0.36737785121E+03  0.36768249014E+03  0.00000000000E+00 0.  1.
         -1    1    1    2    0  502 -0.32109799638E+02  0.12829201667E+02 -0.19865112272E+03  0.20163803264E+03  0.00000000000E+00 0. -1.
<mgrwt>
<rscale>  1 0.30000000E+03</rscale>
<asrwt>0</asrwt>
<pdfrwt beam="1">  1       21 0.67996776E-02 0.30000000E+03</pdfrwt>
<pdfrwt beam="2">0</pdfrwt>
<totfact> 0.16970593E+04</totfact>
</mgrwt>
</event>
<event>
 6    1  0.1273846E-001  0.3000000E+03  0.7818608E-02  0.1093470E+00
         21   -1    0    0  501  502  0.00000000000E+00  0.00000000000E+00  0.20951523453E+01  0.20951523453E+01  0.00000000000E+00 0. -1.
         13   -1    0    0    0    0 -0.00000000000E+00 -0.00000000000E+00 -0.10000000000E+04  0.10000000000E+04  0.00000000000E+00 0.  1.
    9000005    2    1    2  501    0 -0.22355640104E+02 -0.36009654332E+02 -0.68303335082E+03  0.68438375914E+03  0.70782484588E+01 0.  0.
         13    1    3    3    0    0 -0.13520083306E+01 -0.46466218789E+01 -0.11176785424E+03  0.11187257154E+03  0.00000000000E+00 0.  1.
          1    1    3    3  501    0 -0.21003631774E+02 -0.31363032453E+02 -0.57126549658E+03  0.57251118760E+03  0.00000000000E+00 0.  1.
         -1    1    1    2    0  502  0.22355640104E+02  0.36009654332E+02 -0.31487149684E+03  0.31771139320E+03  0.00000000000E+00 0. -1.
<mgrwt>
<rscale>  1 0.30000000E+03</rscale>
<asrwt>0</asrwt>
<pdfrwt beam="1">  1       21 0.76187519E-02 0.30000000E+03</pdfrwt>
<pdfrwt beam="2">0</pdfrwt>
<totfact> 0.13916245E+04</totfact>
</mgrwt>
</event>
<event>
 6    1  0.1273846E-001  0.3000000E+03  0.7818608E-02  0.1093470E+00
         21   -1    0    0  501  502  0.00000000000E+00  0.00000000000E+00  0.12347876796E+01  0.12347876796E+01  0.00000000000E+00 0. -1.
         13   -1    0    0    0    0 -0.00000000000E+00 -0.00000000000E+00 -0.10000000000E+04  0.10000000000E+04  0.00000000000E+00 0.  1.
    9000005    2    1    2  501    0  0.24129367653E+02 -0.20084092049E+02 -0.72285520357E+03  0.72354443843E+03  0.33633198719E+01 0.  0.
         13    1    3    3    0    0  0.28508810601E+01 -0.16511589356E+01 -0.98023797005E+02  0.98079144714E+02  0.00000000000E+00 0.  1.
          3    1    3    3  501    0  0.21278486593E+02 -0.18432933113E+02 -0.62483140656E+03  0.62546529371E+03  0.00000000000E+00 0.  1.
         -1    1    1    2    0  502 -0.24129367653E+02  0.20084092049E+02 -0.27591000876E+03  0.27769034925E+03  0.00000000000E+00 0. -1.
<mgrwt>
<rscale>  1 0.30000000E+03</rscale>
<asrwt>0</asrwt>
<pdfrwt beam="1">  1       21 0.44901465E-02 0.30000000E+03</pdfrwt>
<pdfrwt beam="2">0</pdfrwt>
<totfact> 0.34586591E+04</totfact>
</mgrwt>
</event>
<event>
 6    1  0.1273846E-001  0.3000000E+03  0.7818608E-02  0.1093470E+00
         21   -1    0    0  501  502  0.00000000000E+00  0.00000000000E+00  0.24308151407E+01  0.24308151407E+01  0.00000000000E+00 0. -1.
         13   -1    0    0    0    0 -0.00000000000E+00 -0.00000000000E+00 -0.10000000000E+04  0.10000000000E+04  0.00000000000E+00 0.  1.
    9000005    2    1    2  501    0  0.37053374713E+02  0.29693868919E+02 -0.63131865890E+03  0.63311506109E+03  0.40930510643E+01 0.  0.
         13    1    3    3    0    0  0.15931174523E+02  0.10573521173E+02 -0.23975423332E+03  0.24051547573E+03  0.00000000000E+00 0.  1.
          3    1    3    3  501    0  0.21122200190E+02  0.19120347746E+02 -0.39156442558E+03  0.39259958535E+03  0.00000000000E+00 0.  1.
         -3    1    1    2    0  502 -0.37053374713E+02 -0.29693868919E+02 -0.36625052596E+03  0.36931575405E+03  0.00000000000E+00 0. -1.
<mgrwt>
<rscale>  1 0.30000000E+03</rscale>
<asrwt>0</asrwt>
<pdfrwt beam="1">  1       21 0.88393464E-02 0.30000000E+03</pdfrwt>
<pdfrwt beam="2">0</pdfrwt>
<totfact> 0.10714325E+04</totfact>
</mgrwt>
</event>
<event>
 6    1  0.1273846E-001  0.3000000E+03  0.7818608E-02  0.1093470E+00
         21   -1    0    0  501  502  0.00000000000E+00  0.00000000000E+00  0.38175765884E+01  0.38175765884E+01  0.00000000000E+00 0. -1.
         13   -1    0    0    0    0 -0.00000000000E+00 -0.00000000000E+00 -0.10000000000E+04  0.10000000000E+04  0.00000000000E+00 0.  1.
    9000005    2    1    2  501    0 -0.51421189523E+02  0.12327200323E+02 -0.75733885042E+03  0.75919061373E+03  0.34864042261E+01 0.  0.
         13    1    3    3    0    0 -0.19883121012E+02  0.43426363756E+01 -0.31537976002E+03  0.31603574168E+03  0.00000000000E+00 0.  1.
          1    1    3    3  501    0 -0.31538068512E+02  0.79845639478E+01 -0.44195909041E+03  0.44315487205E+03  0.00000000000E+00 0.  1.
         -1    1    1    2    0  502  0.51421189523E+02 -0.12327200323E+02 -0.23884357299E+03  0.24462696286E+03  0.00000000000E+00 0. -1.
<mgrwt>
<rscale>  1 0.30000000E+03</rscale>
<asrwt>0</asrwt>
<pdfrwt beam="1">  1       21 0.13882126E-01 0.30000000E+03</pdfrwt>
<pdfrwt beam="2">0</pdfrwt>
<totfact> 0.47498678E+03</totfact>
</mgrwt>
</event>
<event>
 6    1  0.1273846E-001  0.3000000E+03  0.7818608E-02  0.1093470E+00
         21   -1    0    0  501  502  0.00000000000E+00  0.00000000000E+00  0.21382121818E+01  0.21382121818E+01  0.00000000000E+00 0. -1.
         13   -1    0    0    0    0 -0.00000000000E+00 -0.00000000000E+00 -0.10000000000E+04  0.10000000000E+04  0.00000000000E+00 0.  1.
    9000005    2    1    2  501    0  0.40870044338E+02  0.14515310161E+02 -0.66280944242E+03  0.66429042262E+03  0.91844365016E+01 0.  0.
         13    1    3    3    0    0  0.39837976881E+01  0.43862208417E+01 -0.71558898122E+02  0.71803798491E+02  0.00000000000E+00 0.  1.
          3    1    3    3  501    0  0.36886246650E+02  0.10129089319E+02 -0.59125054429E+03  0.59248662413E+03  0.00000000000E+00 0.  1.
         -3    1    1    2    0  502 -0.40870044338E+02 -0.14515310161E+02 -0.33505234540E+03  0.33784778956E+03  0.00000000000E+00 0. -1.
<mgrwt>
<rscale>  1 0.30000000E+03</rscale>
<asrwt>0</asrwt>
<pdfrwt beam="1">  1       21 0.77753334E-02 0.30000000E+03</pdfrwt>
<pdfrwt beam="2">0</pdfrwt>
<totfact> 0.13428722E+04</totfact>
</mgrwt>
</event>
<event>
 6    1  0.1273846E-001  0.3000000E+03  0.7818608E-02  0.1093470E+00
         21   -1    0    0  501  502  0.00000000000E+00  0.00000000000E+00  0.28369090973E+01  0.28369090973E+01  0.00000000000E+00 0. -1.
         13   -1    0    0    0    0 -0.00000000000E+00 -0.00000000000E+00 -0.10000000000E+04  0.10000000000E+04  0.00000000000E+00 0.  1.
    9000005    2    1    2  501    0  0.38094538078E+02 -0.32060623877E+02 -0.67594046777E+03  0.67777837429E+03  0.29885213540E+01 0.  0.
         13    1    3    3    0    0  0.10392750353E+01 -0.33114409203E+00 -0.13385675292E+02  0.13430042890E+02  0.00000000000E+00 0.  1.
          1    1    3    3  501    0  0.37055263042E+02 -0.31729479785E+02 -0.66255479247E+03  0.66434833140E+03  0.00000000000E+00 0.  1.
         -3    1    1    2    0  502 -0.38094538078E+02  0.32060623877E+02 -0.32122262314E+03  0.32505853481E+03  0.00000000000E+00 0. -1.
<mgrwt>
<rscale>  1 0.30000000E+03</rscale>
<asrwt>0</asrwt>
<pdfrwt beam="1">  1       21 0.10316055E-01 0.30000000E+03</pdfrwt>
<pdfrwt beam="2">0</pdfrwt>
<totfact> 0.81374799E+03</totfact>
</mgrwt>
</event>
<event>
 6    1  0.1273846E-001  0.3000000E+03  0.7818608E-02  0.1093470E+00
         21   -1    0    0  501  502  0.00000000000E+00  0.00000000000E+00  0.20586153679E+01  0.20586153679E+01  0.00000000000E+00 0. -1.
         13   -1    0    0    0    0 -0.00000000000E+00 -0.00000000000E+00 -0.10000000000E+04  0.10000000000E+04  0.00000000000E+00 0.  1.
    9000005    2    1    2  501    0 -0.34243518889E+02  0.18253198257E+02 -0.75592986372E+03  0.75695583267E+03  0.68099864417E+01 0.  0.
         13    1    3    3    0    0 -0.12411249376E+02  0.74650318453E+01 -0.22296399001E+03  0.22343389773E+03  0.00000000000E+00 0.  1.
          1    1    3    3  501    0 -0.21832269513E+02  0.10788166411E+02 -0.53296587371E+03  0.53352193494E+03  0.00000000000E+00 0.  1.
         -3    1    1    2    0  502  0.34243518889E+02 -0.18253198257E+02 -0.24201152091E+03  0.24510278270E+03  0.00000000000E+00 0. -1.
<mgrwt>
<rscale>  1 0.30000000E+03</rscale>
<asrwt>0</asrwt>
<pdfrwt beam="1">  1       21 0.74858899E-02 0.30000000E+03</pdfrwt>
<pdfrwt beam="2">0</pdfrwt>
<totfact> 0.14351702E+04</totfact>
</mgrwt>
</event>
<event>
 6    1  0.1273846E-001  0.3000000E+03  0.7818608E-02  0.1093470E+00
         21   -1    0    0  501  502  0.00000000000E+00  0.00000000000E+00  0.28985924351E+01  0.28985924351E+01  0.00000000000E+00 0. -1.
         13   -1    0    0    0    0 -0.00000000000E+00 -0.00000000000E+00 -0.10000000000E+04  0.10000000000E+04  0.00000000000E+00 0.  1.
    9000005    2    1    2  501    0  0.13602562983E+02 -0.31165434578E+02 -0.88716769383E+03  0.88782585262E+03  0.34516053734E+01 0.  0.
         13    1    3    3    0    0  0.97395983017E+01 -0.24310636192E+02 -0.64887570282E+03  0.64940399176E+03  0.00000000000E+00 0.  1.
          3    1    3    3  501    0  0.38629646815E+01 -0.68547983851E+01 -0.23829199101E+03  0.23842186086E+03  0.00000000000E+00 0.  1.
         -3    1    1    2    0  502 -0.13602562983E+02  0.31165434578E+02 -0.10993371374E+03  0.11507273981E+03  0.00000000000E+00 0. -1.
<mgrwt>
<rscale>  1 0.30000000E+03</rscale>
<asrwt>0</asrwt>
<pdfrwt beam="1">  1       21 0.10540358E-01 0.30000000E+03</pdfrwt>
<pdfrwt beam="2">0</pdfrwt>
<totfact> 0.78298317E+03</totfact>
</mgrwt>
</event>
<event>
 6    1  0.1273846E-001  0.3000000E+03  0.7818608E-02  0.1093470E+00
         21   -1    0    0  501  502  0.00000000000E+00  0.00000000000E+00  0.10638127571E+01  0.10638127571E+01  0.00000000000E+00 0. -1.
         13   -1    0    0    0    0 -0.00000000000E+00 -0.00000000000E+00 -0.10000000000E+04  0.10000000000E+04  0.00000000000E+00 0.  1.
    9000005    2    1    2  501    0 -0.63962783495E+01 -0.29920342987E+02 -0.66448814112E+03  0.66521915394E+03  0.59911415567E+01 0.  0.
         13    1    3    3    0    0 -0.25959254219E+01 -0.11267950519E+02 -0.31602013145E+03  0.31623160661E+03  0.00000000000E+00 0.  1.
          3    1    3    3  501    0 -0.38003529276E+01 -0.18652392468E+02 -0.34846800967E+03  0.34898754732E+03  0.00000000000E+00 0.  1.
         -1    1    1    2    0  502  0.63962783495E+01  0.29920342987E+02 -0.33444804612E+03  0.33584465882E+03  0.00000000000E+00 0. -1.
<mgrwt>
<rscale>  1 0.30000000E+03</rscale>
<asrwt>0</asrwt>
<pdfrwt beam="1">  1       21 0.38684182E-02 0.30000000E+03</pdfrwt>
<pdfrwt beam="2">0</pdfrwt>
<totfact> 0.44481755E+04</totfact>
</mgrwt>
</event>
<event>
 6    1  0.1273846E-001  0.3000000E+03  0.7818608E-02  0.1093470E+00
         21   -1    0    0  501  502  0.00000000000E+00  0.00000000000E+00  0.19076141218E+01  0.19076141218E+01  0.00000000000E+00 0. -1.
         13   -1    0    0    0    0 -0.00000000000E+00 -0.00000000000E+00 -0.10000000000E+04  0.10000000000E+04  0.00000000000E+00 0.  1.
    9000005    2    1    2  501    0 -0.17986165581E+02  0.37675984465E+02 -0.35553180908E+03  0.35799218737E+03  0.35435843846E+01 0.  0.
         13    1    3    3    0    0 -0.62776673165E+00  0.35929028068E+01 -0.32184809125E+02  0.32390816292E+02  0.00000000000E+00 0.  1.
          1    1    3    3  501    0 -0.17358398850E+02  0.34083081658E+02 -0.32334699996E+03  0.32560137108E+03  0.00000000000E+00 0.  1.
         -1    1    1    2    0  502  0.17986165581E+02 -0.37675984465E+02 -0.64256057680E+03  0.64391542675E+03  0.00000000000E+00 0. -1.
<mgrwt>
<rscale>  1 0.30000000E+03</rscale>
<asrwt>0</asrwt>
<pdfrwt beam="1">  1       21 0.69367933E-02 0.30000000E+03</pdfrwt>
<pdfrwt beam="2">0</pdfrwt>
<totfact> 0.16391922E+04</totfact>
</mgrwt>
</event>
<event>
 6    1  0.1273846E-001  0.3000000E+03  0.7818608E-02  0.1093470E+00
         21   -1    0    0  501  502  0.00000000000E+00  0.00000000000E+00  0.17112907665E+01  0.17112907665E+01  0.00000000000E+00 0. -1.
         13   -1    0    0    0    0 -0.00000000000E+00 -0.00000000000E+00 -0.10000000000E+04  0.10000000000E+04  0.00000000000E+00 0.  1.
    9000005    2    1    2  501    0 -0.22739354842E+02  0.25032587148E+02 -0.78694903524E+03  0.78768286630E+03  0.34358568016E+01 0.  0.
         13    1    3    3    0    0 -0.97077792615E+01  0.10848163242E+02 -0.37864377492E+03  0.37892351723E+03  0.00000000000E+00 0.  1.
          3    1    3    3  501    0 -0.13031575580E+02  0.14184423906E+02 -0.40830526032E+03  0.40875934907E+03  0.00000000000E+00 0.  1.
         -1    1    1    2    0  502  0.22739354842E+02 -0.25032587148E+02 -0.21133967399E+03  0.21402842447E+03  0.00000000000E+00 0. -1.
<mgrwt>
<rscale>  1 0.30000000E+03</rscale>
<asrwt>0</asrwt>
<pdfrwt beam="1">  1       21 0.62228886E-02 0.30000000E+03</pdfrwt>
<pdfrwt beam="2">0</pdfrwt>
<totfact> 0.19786007E+04</totfact>
</mgrwt>
</event>
<event>
 6    1  0.1273846E-001  0.3000000E+03  0.7818608E-02  0.1093470E+00
         21   -1    0    0  501  502  0.00000000000E+00  0.00000000000E+00  0.48108391559E+01  0.48108391559E+01  0.00000000000E+00 0. -1.
         13   -1    0    0    0    0 -0.00000000000E+00 -0.00000000000E+00 -0.10000000000E+04  0.10000000000E+04  0.00000000000E+00 0.  1.
    9000005    2    1    2  501    0 -0.32041839124E+02  0.33069286170E+02 -0.87316005775E+03  0.87438323800E+03  0.41597231793E+01 0.  0.
         13    1    3    3    0    0 -0.16033392425E+02  0.19519287609E+02 -0.47912731251E+03  0.47979271967E+03  0.00000000000E+00 0.  1.
          1    1    3    3  501    0 -0.16008446699E+02  0.13549998561E+02 -0.39403274524E+03  0.39459051832E+03  0.00000000000E+00 0.  1.
         -1    1    1    2    0  502  0.32041839124E+02 -0.33069286170E+02 -0.12202910310E+03  0.13042760116E+03  0.00000000000E+00 0. -1.
<mgrwt>
<rscale>  1 0.30000000E+03</rscale>
<asrwt>0</asrwt>
<pdfrwt beam="1">  1       21 0.17493997E-01 0.30000000E+03</pdfrwt>
<pdfrwt beam="2">0</pdfrwt>
<totfact> 0.30909353E+03</totfact>
</mgrwt>
</event>
<event>
 6    1  0.1273846E-001  0.3000000E+03  0.7818608E-02  0.1093470E+00
         21   -1    0    0  501  502  0.00000000000E+00  0.00000000000E+00  0.21341767432E+01  0.21341767432E+01  0.00000000000E+00 0. -1.
         13   -1    0    0    0    0 -0.00000000000E+00 -0.00000000000E+00 -0.10000000000E+04  0.10000000000E+04  0.00000000000E+00 0.  1.
    9000005    2    1    2  501    0 -0.27118531660E+02  0.36992104944E+02 -0.44455882018E+03  0.44692928642E+03  0.30678771728E+01 0.  0.
         13    1    3    3    0    0 -0.66583415529E+00  0.39510544659E+00 -0.54485032898E+01  0.55032382772E+01  0.00000000000E+00 0.  1.
          3    1    3    3  501    0 -0.26452697505E+02  0.36596999497E+02 -0.43911031689E+03  0.44142604814E+03  0.00000000000E+00 0.  1.
         -3    1    1    2    0  502  0.27118531660E+02 -0.36992104944E+02 -0.55330700308E+03  0.55520489033E+03  0.00000000000E+00 0. -1.
<mgrwt>
<rscale>  1 0.30000000E+03</rscale>
<asrwt>0</asrwt>
<pdfrwt beam="1">  1       21 0.77606591E-02 0.30000000E+03</pdfrwt>
<pdfrwt beam="2">0</pdfrwt>
<totfact> 0.13473283E+04</totfact>
</mgrwt>
</event>
<event>
 6    1  0.1273846E-001  0.3000000E+03  0.7818608E-02  0.1093470E+00
         21   -1    0    0  501  502  0.00000000000E+00  0.00000000000E+00  0.24803926606E+01  0.24803926606E+01  0.00000000000E+00 0. -1.
         13   -1    0    0    0    0 -0.00000000000E+00 -0.00000000000E+00 -0.10000000000E+04  0.10000000000E+04  0.00000000000E+00 0.  1.
    9000005    2    1    2  501    0  0.36537832706E+02 -0.23163784510E+02 -0.25205892846E+03  0.25576545516E+03  0.32696337554E+01 0.  0.
         13    1    3    3    0    0  0.11543576018E+02 -0.57896944747E+01 -0.70713177901E+02  0.71882739501E+02  0.00000000000E+00 0.  1.
          1    1    3    3  501    0  0.24994256688E+02 -0.17374090036E+02 -0.18134575056E+03  0.18388271566E+03  0.00000000000E+00 0.  1.
         -1    1    1    2    0  502 -0.36537832706E+02  0.23163784510E+02 -0.74546067888E+03  0.74671493750E+03  0.00000000000E+00 0. -1.
<mgrwt>
<rscale>  1 0.30000000E+03</rscale>
<asrwt>0</asrwt>
<pdfrwt beam="1">  1       21 0.90196287E-02 0.30000000E+03</pdfrwt>
<pdfrwt beam="2">0</pdfrwt>
<totfact> 0.10338106E+04</totfact>
</mgrwt>
</event>
<event>
 6    1  0.1273846E-001  0.3000000E+03  0.7818608E-02  0.1093470E+00
         21   -1    0    0  501  502  0.00000000000E+00  0.00000000000E+00  0.30169591213E+01  0.30169591213E+01  0.00000000000E+00 0. -1.
         13   -1    0    0    0    0 -0.00000000000E+00 -0.00000000000E+00 -0.10000000000E+04  0.10000000000E+04  0.00000000000E+00 0.  1.
    9000005    2    1    2  501    0 -0.40228028259E+02 -0.27756695558E+01 -0.83881513546E+03  0.83978986301E+03  0.31912295053E+01 0.  0.
         13    1    3    3    0    0 -0.36138589333E+02 -0.22715878845E+01 -0.73151717450E+03  0.73241281689E+03  0.00000000000E+00 0.  1.
          1    1    3    3  501    0 -0.40894389258E+01 -0.50408167128E+00 -0.10729796095E+03  0.10737704612E+03  0.00000000000E+00 0.  1.
         -1    1    1    2    0  502  0.40228028259E+02  0.27756695558E+01 -0.15816790542E+03  0.16322709611E+03  0.00000000000E+00 0. -1.
<mgrwt>
<rscale>  1 0.30000000E+03</rscale>
<asrwt>0</asrwt>
<pdfrwt beam="1">  1       21 0.10970784E-01 0.30000000E+03</pdfrwt>
<pdfrwt beam="2">0</pdfrwt>
<totfact> 0.72868023E+03</totfact>
</mgrwt>
</event>
<event>
 6    1  0.1273846E-001  0.3000000E+03  0.7818608E-02  0.1093470E+00
         21   -1    0    0  501  502  0.00000000000E+00  0.00000000000E+00  0.33022004920E+01  0.33022004920E+01  0.00000000000E+00 0. -1.
         13   -1    0    0    0    0 -0.00000000000E+00 -0.00000000000E+00 -0.10000000000E+04  0.10000000000E+04  0.00000000000E+00 0.  1.
    9000005    2    1    2  501    0  0.30678406936E+02 -0.28379914435E+02 -0.84220037849E+03  0.84325209178E+03  0.51018210285E+01 0.  0.
         13    1    3    3    0    0  0.17819280590E+02 -0.13927858168E+02 -0.41933799204E+03  0.41994745333E+03  0.00000000000E+00 0.  1.
          1    1    3    3  501    0  0.12859126346E+02 -0.14452056267E+02 -0.42286238645E+03  0.42330463845E+03  0.00000000000E+00 0.  1.
         -3    1    1    2    0  502 -0.30678406936E+02  0.28379914435E+02 -0.15449742102E+03  0.16005010871E+03  0.00000000000E+00 0. -1.
<mgrwt>
<rscale>  1 0.30000000E+03</rscale>
<asrwt>0</asrwt>
<pdfrwt beam="1">  1       21 0.12008027E-01 0.30000000E+03</pdfrwt>
<pdfrwt beam="2">0</pdfrwt>
<totfact> 0.61896031E+03</totfact>
</mgrwt>
</event>
<event>
 6    1  0.1273846E-001  0.3000000E+03  0.7818608E-02  0.1093470E+00
         21   -1    0    0  501  502  0.00000000000E+00  0.00000000000E+00  0.81762774852E+01  0.81762774852E+01  0.00000000000E+00 0. -1.
         13   -1    0    0    0    0 -0.00000000000E+00 -0.00000000000E+00 -0.10000000000E+04  0.10000000000E+04  0.00000000000E+00 0.  1.
    9000005    2    1    2  501    0 -0.36604880440E+02  0.48288083091E+02 -0.87001684104E+03  0.87213006249E+03  0.31441946980E+01 0.  0.
         13    1    3    3    0    0 -0.33514353212E+02  0.43967517157E+02 -0.80545039178E+03  0.80734545770E+03  0.00000000000E+00 0.  1.
          3    1    3    3  501    0 -0.30905272275E+01  0.43205659340E+01 -0.64566449256E+02  0.64784604792E+02  0.00000000000E+00 0.  1.
         -1    1    1    2    0  502  0.36604880440E+02 -0.48288083091E+02 -0.12180688147E+03  0.13604621500E+03  0.00000000000E+00 0. -1.
<mgrwt>
<rscale>  1 0.30000000E+03</rscale>
<asrwt>0</asrwt>
<pdfrwt beam="1">  1       21 0.29731981E-01 0.30000000E+03</pdfrwt>
<pdfrwt beam="2">0</pdfrwt>
<totfact> 0.11069622E+03</totfact>
</mgrwt>
</event>
<event>
 6    1  0.1273846E-001  0.3000000E+03  0.7818608E-02  0.1093470E+00
         21   -1    0    0  501  502  0.00000000000E+00  0.00000000000E+00  0.43743211530E+01  0.43743211530E+01  0.00000000000E+00 0. -1.
         13   -1    0    0    0    0 -0.00000000000E+00 -0.00000000000E+00 -0.10000000000E+04  0.10000000000E+04  0.00000000000E+00 0.  1.
    9000005    2    1    2  501    0 -0.55564282233E+02  0.25754961296E+02 -0.68708153151E+03  0.68981081667E+03  0.26878193846E+01 0.  0.
         13    1    3    3    0    0 -0.49565404316E+02  0.23705790858E+02 -0.61044412594E+03  0.61291167775E+03  0.00000000000E+00 0.  1.
          3    1    3    3  501    0 -0.59988779173E+01  0.20491704386E+01 -0.76637405566E+02  0.76899138926E+02  0.00000000000E+00 0.  1.
         -1    1    1    2    0  502  0.55564282233E+02 -0.25754961296E+02 -0.30854414734E+03  0.31456350448E+03  0.00000000000E+00 0. -1.
<mgrwt>
<rscale>  1 0.30000000E+03</rscale>
<asrwt>0</asrwt>
<pdfrwt beam="1">  1       21 0.15906656E-01 0.30000000E+03</pdfrwt>
<pdfrwt beam="2">0</pdfrwt>
<totfact> 0.36927097E+03</totfact>
</mgrwt>
</event>
<event>
 6    1  0.1273846E-001  0.3000000E+03  0.7818608E-02  0.1093470E+00
         21   -1    0    0  501  502  0.00000000000E+00  0.00000000000E+00  0.14303517391E+01  0.14303517391E+01  0.00000000000E+00 0. -1.
         13   -1    0    0    0    0 -0.00000000000E+00 -0.00000000000E+00 -0.10000000000E+04  0.10000000000E+04  0.00000000000E+00 0.  1.
    9000005    2    1    2  501    0 -0.12244052354E+02  0.31490814542E+02 -0.72354515115E+03  0.72433819698E+03  0.25786879520E+01 0.  0.
         13    1    3    3    0    0 -0.11623960134E+02  0.27843563472E+02 -0.65068633050E+03  0.65138550887E+03  0.00000000000E+00 0.  1.
          1    1    3    3  501    0 -0.62009221937E+00  0.36472510702E+01 -0.72858820652E+02  0.72952688104E+02  0.00000000000E+00 0.  1.
         -1    1    1    2    0  502  0.12244052354E+02 -0.31490814542E+02 -0.27502449711E+03  0.27709215476E+03  0.00000000000E+00 0. -1.
<mgrwt>
<rscale>  1 0.30000000E+03</rscale>
<asrwt>0</asrwt>
<pdfrwt beam="1">  1       21 0.52012900E-02 0.30000000E+03</pdfrwt>
<pdfrwt beam="2">0</pdfrwt>
<totfact> 0.26928470E+04</totfact>
</mgrwt>
</event>
<event>
 6    1  0.1273846E-001  0.3000000E+03  0.7818608E-02  0.1093470E+00
         21   -1    0    0  501  502  0.00000000000E+00  0.00000000000E+00  0.35307854349E+01  0.35307854349E+01  0.00000000000E+00 0. -1.
         13   -1    0    0    0    0 -0.00000000000E+00 -0.00000000000E+00 -0.10000000000E+04  0.10000000000E+04  0.00000000000E+00 0.  1.
    9000005    2    1    2  501    0  0.26302053904E+02 -0.20248953686E+02 -0.91432061144E+03  0.91492936807E+03  0.34278089141E+01 0.  0.
         13    1    3    3    0    0  0.18442450348E+02 -0.12232194023E+02 -0.59439744110E+03  0.59480927072E+03  0.00000000000E+00 0.  1.
          3    1    3    3  501    0  0.78596035563E+01 -0.80167596637E+01 -0.31992317034E+03  0.32012009734E+03  0.00000000000E+00 0.  1.
         -3    1    1    2    0  502 -0.26302053904E+02  0.20248953686E+02 -0.82148603121E+02  0.88601417369E+02  0.00000000000E+00 0. -1.
<mgrwt>
<rscale>  1 0.30000000E+03</rscale>
<asrwt>0</asrwt>
<pdfrwt beam="1">  1       21 0.12839247E-01 0.30000000E+03</pdfrwt>
<pdfrwt beam="2">0</pdfrwt>
<totfact> 0.54795749E+03</totfact>
</mgrwt>
</event>
<event>
 6    1  0.1273846E-001  0.3000000E+03  0.7818608E-02  0.1093470E+00
         21   -1    0    0  501  502  0.00000000000E+00  0.00000000000E+00  0.14807222596E+01  0.14807222596E+01  0.00000000000E+00 0. -1.
         13   -1    0    0    0    0 -0.00000000000E+00 -0.00000000000E+00 -0.10000000000E+04  0.10000000000E+04  0.00000000000E+00 0.  1.
    9000005    2    1    2  501    0 -0.21212504379E+02 -0.28069157736E+02 -0.69642208502E+03  0.69734167214E+03  0.66211208757E+01 0.  0.
         13    1    3    3    0    0 -0.18872067904E+02 -0.20740494289E+02 -0.56315912311E+03  0.56385682668E+03  0.00000000000E+00 0.  1.
          1    1    3    3  501    0 -0.23404364745E+01 -0.73286634465E+01 -0.13326296190E+03  0.13348484545E+03  0.00000000000E+00 0.  1.
         -1    1    1    2    0  502  0.21212504379E+02  0.28069157736E+02 -0.30209719272E+03  0.30413905012E+03  0.00000000000E+00 0. -1.
<mgrwt>
<rscale>  1 0.30000000E+03</rscale>
<asrwt>0</asrwt>
<pdfrwt beam="1">  1       21 0.53844559E-02 0.30000000E+03</pdfrwt>
<pdfrwt beam="2">0</pdfrwt>
<totfact> 0.25380860E+04</totfact>
</mgrwt>
</event>
<event>
 6    1  0.1273846E-001  0.3000000E+03  0.7818608E-02  0.1093470E+00
         21   -1    0    0  501  502  0.00000000000E+00  0.00000000000E+00  0.20553150391E+01  0.20553150391E+01  0.00000000000E+00 0. -1.
         13   -1    0    0    0    0 -0.00000000000E+00 -0.00000000000E+00 -0.10000000000E+04  0.10000000000E+04  0.00000000000E+00 0.  1.
    9000005    2    1    2  501    0 -0.10800441575E+02  0.29578161537E+02 -0.85907720914E+03  0.85966257288E+03  0.38171680568E+01 0.  0.
         13    1    3    3    0    0 -0.76233195319E+01  0.15475756549E+02 -0.47892893183E+03  0.47923953905E+03  0.00000000000E+00 0.  1.
          3    1    3    3  501    0 -0.31771220429E+01  0.14102404988E+02 -0.38014827731E+03  0.38042303383E+03  0.00000000000E+00 0.  1.
         -1    1    1    2    0  502  0.10800441575E+02 -0.29578161537E+02 -0.13886747582E+03  0.14239274216E+03  0.00000000000E+00 0. -1.
<mgrwt>
<rscale>  1 0.30000000E+03</rscale>
<asrwt>0</asrwt>
<pdfrwt beam="1">  1       21 0.74738886E-02 0.30000000E+03</pdfrwt>
<pdfrwt beam="2">0</pdfrwt>
<totfact> 0.14392071E+04</totfact>
</mgrwt>
</event>
<event>
 6    1  0.1273846E-001  0.3000000E+03  0.7818608E-02  0.1093470E+00
         21   -1    0    0  501  502  0.00000000000E+00  0.00000000000E+00  0.20927642589E+01  0.20927642589E+01  0.00000000000E+00 0. -1.
         13   -1    0    0    0    0 -0.00000000000E+00 -0.00000000000E+00 -0.10000000000E+04  0.10000000000E+04  0.00000000000E+00 0.  1.
    9000005    2    1    2  501    0 -0.10372954426E+02  0.34460933592E+02 -0.19660766797E+03  0.19998544510E+03  0.66670099985E+01 0.  0.
         13    1    3    3    0    0 -0.95070783059E+01  0.32895045520E+02 -0.17597957880E+03  0.17927989489E+03  0.00000000000E+00 0.  1.
          3    1    3    3  501    0 -0.86587612006E+00  0.15658880720E+01 -0.20628089162E+02  0.20705550207E+02  0.00000000000E+00 0.  1.
         -1    1    1    2    0  502  0.10372954426E+02 -0.34460933592E+02 -0.80129956778E+03  0.80210731916E+03  0.00000000000E+00 0. -1.
<mgrwt>
<rscale>  1 0.30000000E+03</rscale>
<asrwt>0</asrwt>
<pdfrwt beam="1">  1       21 0.76100679E-02 0.30000000E+03</pdfrwt>
<pdfrwt beam="2">0</pdfrwt>
<totfact> 0.13944079E+04</totfact>
</mgrwt>
</event>
<event>
 6    1  0.1273846E-001  0.3000000E+03  0.7818608E-02  0.1093470E+00
         21   -1    0    0  501  502  0.00000000000E+00  0.00000000000E+00  0.40585821992E+01  0.40585821992E+01  0.00000000000E+00 0. -1.
         13   -1    0    0    0    0 -0.00000000000E+00 -0.00000000000E+00 -0.10000000000E+04  0.10000000000E+04  0.00000000000E+00 0.  1.
    9000005    2    1    2  501    0  0.55636144259E+02 -0.30300586749E+02 -0.54870214919E+03  0.55235461998E+03  0.28410511916E+01 0.  0.
         13    1    3    3    0    0  0.51902334334E+02 -0.28071989051E+02 -0.50450228866E+03  0.50794138259E+03  0.00000000000E+00 0.  1.
          1    1    3    3  501    0  0.37338099254E+01 -0.22285976981E+01 -0.44199860533E+02  0.44413237389E+02  0.00000000000E+00 0.  1.
         -1    1    1    2    0  502 -0.55636144259E+02  0.30300586749E+02 -0.44723926861E+03  0.45170396222E+03  0.00000000000E+00 0. -1.
<mgrwt>
<rscale>  1 0.30000000E+03</rscale>
<asrwt>0</asrwt>
<pdfrwt beam="1">  1       21 0.14758512E-01 0.30000000E+03</pdfrwt>
<pdfrwt beam="2">0</pdfrwt>
<totfact> 0.42434985E+03</totfact>
</mgrwt>
</event>
<event>
 6    1  0.1273846E-001  0.3000000E+03  0.7818608E-02  0.1093470E+00
         21   -1    0    0  501  502  0.00000000000E+00  0.00000000000E+00  0.47867387272E+01  0.47867387272E+01  0.00000000000E+00 0. -1.
         13   -1    0    0    0    0 -0.00000000000E+00 -0.00000000000E+00 -0.10000000000E+04  0.10000000000E+04  0.00000000000E+00 0.  1.
    9000005    2    1    2  501    0  0.66333010034E+02  0.15689386858E+02 -0.41412950759E+03  0.41971874792E+03  0.37885635405E+01 0.  0.
         13    1    3    3    0    0  0.45680354518E+02  0.92313067667E+01 -0.27738534336E+03  0.28127307110E+03  0.00000000000E+00 0.  1.
          1    1    3    3  501    0  0.20652655516E+02  0.64580800908E+01 -0.13674416423E+03  0.13844567682E+03  0.00000000000E+00 0.  1.
         -3    1    1    2    0  502 -0.66333010034E+02 -0.15689386858E+02 -0.58108375368E+03  0.58506799081E+03  0.00000000000E+00 0. -1.
<mgrwt>
<rscale>  1 0.30000000E+03</rscale>
<asrwt>0</asrwt>
<pdfrwt beam="1">  1       21 0.17406359E-01 0.30000000E+03</pdfrwt>
<pdfrwt beam="2">0</pdfrwt>
<totfact> 0.31202178E+03</totfact>
</mgrwt>
</event>
<event>
 6    1  0.1273846E-001  0.3000000E+03  0.7818608E-02  0.1093470E+00
         21   -1    0    0  501  502  0.00000000000E+00  0.00000000000E+00  0.42873618726E+01  0.42873618726E+01  0.00000000000E+00 0. -1.
         13   -1    0    0    0    0 -0.00000000000E+00 -0.00000000000E+00 -0.10000000000E+04  0.10000000000E+04  0.00000000000E+00 0.  1.
    9000005    2    1    2  501    0  0.23920555256E+02 -0.50720178544E+02 -0.75652485062E+03  0.75861374268E+03  0.44979439193E+01 0.  0.
         13    1    3    3    0    0  0.15849943087E+02 -0.35581985407E+02 -0.54997408441E+03  0.55135178598E+03  0.00000000000E+00 0.  1.
          3    1    3    3  501    0  0.80706121689E+01 -0.15138193137E+02 -0.20655076621E+03  0.20726195670E+03  0.00000000000E+00 0.  1.
         -1    1    1    2    0  502 -0.23920555256E+02  0.50720178544E+02 -0.23918778751E+03  0.24567361919E+03  0.00000000000E+00 0. -1.
<mgrwt>
<rscale>  1 0.30000000E+03</rscale>
<asrwt>0</asrwt>
<pdfrwt beam="1">  1       21 0.15590440E-01 0.30000000E+03</pdfrwt>
<pdfrwt beam="2">0</pdfrwt>
<totfact> 0.38333722E+03</totfact>
</mgrwt>
</event>
<event>
 6    1  0.1273846E-001  0.3000000E+03  0.7818608E-02  0.1093470E+00
         21   -1    0    0  501  502  0.00000000000E+00  0.00000000000E+00  0.32840010198E+01  0.32840010198E+01  0.00000000000E+00 0. -1.
         13   -1    0    0    0    0 -0.00000000000E+00 -0.00000000000E+00 -0.10000000000E+04  0.10000000000E+04  0.00000000000E+00 0.  1.
    9000005    2    1    2  501    0  0.41601632343E+02  0.35089816962E+02 -0.65455874104E+03  0.65682537401E+03  0.32303875725E+01 0.  0.
         13    1    3    3    0    0  0.31332827571E+02  0.24733333385E+02 -0.48658998109E+03  0.48822463432E+03  0.00000000000E+00 0.  1.
          1    1    3    3  501    0  0.10268804773E+02  0.10356483577E+02 -0.16796875995E+03  0.16860073969E+03  0.00000000000E+00 0.  1.
         -3    1    1    2    0  502 -0.41601632343E+02 -0.35089816962E+02 -0.34215725794E+03  0.34645862701E+03  0.00000000000E+00 0. -1.
<mgrwt>
<rscale>  1 0.30000000E+03</rscale>
<asrwt>0</asrwt>
<pdfrwt beam="1">  1       21 0.11941847E-01 0.30000000E+03</pdfrwt>
<pdfrwt beam="2">0</pdfrwt>
<totfact> 0.62519837E+03</totfact>
</mgrwt>
</event>
<event>
 6    1  0.1273846E-001  0.3000000E+03  0.7818608E-02  0.1093470E+00
         21   -1    0    0  501  502  0.00000000000E+00  0.00000000000E+00  0.29989281040E+01  0.29989281040E+01  0.00000000000E+00 0. -1.
         13   -1    0    0    0    0 -0.00000000000E+00 -0.00000000000E+00 -0.10000000000E+04  0.10000000000E+04  0.00000000000E+00 0.  1.
    9000005    2    1    2  501    0 -0.42490087743E+00  0.49664775862E+02 -0.70925749382E+03  0.71100040546E+03  0.29348803363E+01 0.  0.
         13    1    3    3    0    0  0.14780927207E+00  0.65186959092E+00 -0.60891825188E+01  0.61257591605E+01  0.00000000000E+00 0.  1.
          3    1    3    3  501    0 -0.57271014950E+00  0.49012906271E+02 -0.70316831130E+03  0.70487464630E+03  0.00000000000E+00 0.  1.
         -3    1    1    2    0  502  0.42490087743E+00 -0.49664775862E+02 -0.28774357808E+03  0.29199852264E+03  0.00000000000E+00 0. -1.
<mgrwt>
<rscale>  1 0.30000000E+03</rscale>
<asrwt>0</asrwt>
<pdfrwt beam="1">  1       21 0.10905216E-01 0.30000000E+03</pdfrwt>
<pdfrwt beam="2">0</pdfrwt>
<totfact> 0.73657768E+03</totfact>
</mgrwt>
</event>
<event>
 6    1  0.1273846E-001  0.3000000E+03  0.7818608E-02  0.1093470E+00
         21   -1    0    0  501  502  0.00000000000E+00  0.00000000000E+00  0.19904329275E+01  0.19904329275E+01  0.00000000000E+00 0. -1.
         13   -1    0    0    0    0 -0.00000000000E+00 -0.00000000000E+00 -0.10000000000E+04  0.10000000000E+04  0.00000000000E+00 0.  1.
    9000005    2    1    2  501    0 -0.21160834433E+02  0.39084158444E+02 -0.52350381044E+03  0.52540773765E+03  0.46582065344E+01 0.  0.
         13    1    3    3    0    0 -0.12384462348E+02  0.18151191659E+02 -0.26462910057E+03  0.26553983041E+03  0.00000000000E+00 0.  1.
          1    1    3    3  501    0 -0.87763720853E+01  0.20932966785E+02 -0.25887470987E+03  0.25986790724E+03  0.00000000000E+00 0.  1.
         -1    1    1    2    0  502  0.21160834433E+02 -0.39084158444E+02 -0.47450575663E+03  0.47658269527E+03  0.00000000000E+00 0. -1.
<mgrwt>
<rscale>  1 0.30000000E+03</rscale>
<asrwt>0</asrwt>
<pdfrwt beam="1">  1       21 0.72379532E-02 0.30000000E+03</pdfrwt>
<pdfrwt beam="2">0</pdfrwt>
<totfact> 0.15222124E+04</totfact>
</mgrwt>
</event>
<event>
 6    1  0.1273846E-001  0.3000000E+03  0.7818608E-02  0.1093470E+00
         21   -1    0    0  501  502  0.00000000000E+00  0.00000000000E+00  0.42928691149E+01  0.42928691149E+01  0.00000000000E+00 0. -1.
         13   -1    0    0    0    0 -0.00000000000E+00 -0.00000000000E+00 -0.10000000000E+04  0.10000000000E+04  0.00000000000E+00 0.  1.
    9000005    2    1    2  501    0 -0.26132905966E+02 -0.41103147820E+02 -0.83225649883E+03  0.83373933894E+03  0.98998950098E+01 0.  0.
         13    1    3    3    0    0 -0.83381244481E+01 -0.14612507791E+02 -0.37021246465E+03  0.37059454756E+03  0.00000000000E+00 0.  1.
          1    1    3    3  501    0 -0.17794781518E+02 -0.26490640030E+02 -0.46204403418E+03  0.46314479138E+03  0.00000000000E+00 0.  1.
         -3    1    1    2    0  502  0.26132905966E+02  0.41103147820E+02 -0.16345063206E+03  0.17055353017E+03  0.00000000000E+00 0. -1.
<mgrwt>
<rscale>  1 0.30000000E+03</rscale>
<asrwt>0</asrwt>
<pdfrwt beam="1">  1       21 0.15610466E-01 0.30000000E+03</pdfrwt>
<pdfrwt beam="2">0</pdfrwt>
<totfact> 0.38242292E+03</totfact>
</mgrwt>
</event>
<event>
 6    1  0.1273846E-001  0.3000000E+03  0.7818608E-02  0.1093470E+00
         21   -1    0    0  501  502  0.00000000000E+00  0.00000000000E+00  0.15715475969E+01  0.15715475969E+01  0.00000000000E+00 0. -1.
         13   -1    0    0    0    0 -0.00000000000E+00 -0.00000000000E+00 -0.10000000000E+04  0.10000000000E+04  0.00000000000E+00 0.  1.
    9000005    2    1    2  501    0  0.22544927059E+02  0.32431631345E+02 -0.51971883086E+03  0.52123522147E+03  0.42905120163E+01 0.  0.
         13    1    3    3    0    0  0.77047027396E+01  0.12055466791E+02 -0.16288523089E+03  0.16351237007E+03  0.00000000000E+00 0.  1.
          3    1    3    3  501    0  0.14840224320E+02  0.20376164554E+02 -0.35683359998E+03  0.35772285140E+03  0.00000000000E+00 0.  1.
         -3    1    1    2    0  502 -0.22544927059E+02 -0.32431631345E+02 -0.47870962154E+03  0.48033632613E+03  0.00000000000E+00 0. -1.
<mgrwt>
<rscale>  1 0.30000000E+03</rscale>
<asrwt>0</asrwt>
<pdfrwt beam="1">  1       21 0.57147306E-02 0.30000000E+03</pdfrwt>
<pdfrwt beam="2">0</pdfrwt>
<totfact> 0.22916319E+04</totfact>
</mgrwt>
</event>
<event>
 6    1  0.1273846E-001  0.3000000E+03  0.7818608E-02  0.1093470E+00
         21   -1    0    0  501  502  0.00000000000E+00  0.00000000000E+00  0.28160879371E+01  0.28160879371E+01  0.00000000000E+00 0. -1.
         13   -1    0    0    0    0 -0.00000000000E+00 -0.00000000000E+00 -0.10000000000E+04  0.10000000000E+04  0.00000000000E+00 0.  1.
    9000005    2    1    2  501    0  0.32801339055E+02  0.38788960932E+02 -0.64219847321E+03  0.64421439646E+03  0.35774679213E+01 0.  0.
         13    1    3    3    0    0  0.17846788242E+02  0.22310076017E+02 -0.38103045811E+03  0.38210006196E+03  0.00000000000E+00 0.  1.
          3    1    3    3  501    0  0.14954550813E+02  0.16478884915E+02 -0.26116801509E+03  0.26211433449E+03  0.00000000000E+00 0.  1.
         -1    1    1    2    0  502 -0.32801339055E+02 -0.38788960932E+02 -0.35498543885E+03  0.35860169148E+03  0.00000000000E+00 0. -1.
<mgrwt>
<rscale>  1 0.30000000E+03</rscale>
<asrwt>0</asrwt>
<pdfrwt beam="1">  1       21 0.10240341E-01 0.30000000E+03</pdfrwt>
<pdfrwt beam="2">0</pdfrwt>
<totfact> 0.82454859E+03</totfact>
</mgrwt>
</event>
<event>
 6    1  0.1273846E-001  0.3000000E+03  0.7818608E-02  0.1093470E+00
         21   -1    0    0  501  502  0.00000000000E+00  0.00000000000E+00  0.22506867166E+01  0.22506867166E+01  0.00000000000E+00 0. -1.
         13   -1    0    0    0    0 -0.00000000000E+00 -0.00000000000E+00 -0.10000000000E+04  0.10000000000E+04  0.00000000000E+00 0.  1.
    9000005    2    1    2  501    0 -0.29332123732E+01  0.30299194473E+02 -0.88259500632E+03  0.88314082426E+03  0.60930604679E+01 0.  0.
         13    1    3    3    0    0 -0.39787472481E+01  0.28699844924E+02 -0.80212175699E+03  0.80264489319E+03  0.00000000000E+00 0.  1.
          3    1    3    3  501    0  0.10455348750E+01  0.15993495487E+01 -0.80473249331E+02  0.80495931077E+02  0.00000000000E+00 0.  1.
         -3    1    1    2    0  502  0.29332123732E+01 -0.30299194473E+02 -0.11515430697E+03  0.11910986245E+03  0.00000000000E+00 0. -1.
<mgrwt>
<rscale>  1 0.30000000E+03</rscale>
<asrwt>0</asrwt>
<pdfrwt beam="1">  1       21 0.81843326E-02 0.30000000E+03</pdfrwt>
<pdfrwt beam="2">0</pdfrwt>
<totfact> 0.12272518E+04</totfact>
</mgrwt>
</event>
<event>
 6    1  0.1273846E-001  0.3000000E+03  0.7818608E-02  0.1093470E+00
         21   -1    0    0  501  502  0.00000000000E+00  0.00000000000E+00  0.22123929313E+01  0.22123929313E+01  0.00000000000E+00 0. -1.
         13   -1    0    0    0    0 -0.00000000000E+00 -0.00000000000E+00 -0.10000000000E+04  0.10000000000E+04  0.00000000000E+00 0.  1.
    9000005    2    1    2  501    0 -0.42693132871E+01  0.37603968063E+02 -0.79597870546E+03  0.79688553590E+03  0.34888866447E+01 0.  0.
         13    1    3    3    0    0 -0.48741522645E+01  0.33267519240E+02 -0.70009873254E+03  0.70090564308E+03  0.00000000000E+00 0.  1.
          1    1    3    3  501    0  0.60483897730E+00  0.43364488236E+01 -0.95879972928E+02  0.95979892828E+02  0.00000000000E+00 0.  1.
         -1    1    1    2    0  502  0.42693132871E+01 -0.37603968063E+02 -0.20180890160E+03  0.20532685703E+03  0.00000000000E+00 0. -1.
<mgrwt>
<rscale>  1 0.30000000E+03</rscale>
<asrwt>0</asrwt>
<pdfrwt beam="1">  1       21 0.80450822E-02 0.30000000E+03</pdfrwt>
<pdfrwt beam="2">0</pdfrwt>
<totfact> 0.12648386E+04</totfact>
</mgrwt>
</event>
<event>
 6    1  0.1273846E-001  0.3000000E+03  0.7818608E-02  0.1093470E+00
         21   -1    0    0  501  502  0.00000000000E+00  0.00000000000E+00  0.20921189039E+01  0.20921189039E+01  0.00000000000E+00 0. -1.
         13   -1    0    0    0    0 -0.00000000000E+00 -0.00000000000E+00 -0.10000000000E+04  0.10000000000E+04  0.00000000000E+00 0.  1.
    9000005    2    1    2  501    0  0.19839389678E+02  0.25697281303E+02 -0.85167469446E+03  0.85229860595E+03  0.30293353209E+01 0.  0.
         13    1    3    3    0    0  0.17681098654E+01  0.10957438275E+01 -0.54057484956E+02  0.54097491132E+02  0.00000000000E+00 0.  1.
          3    1    3    3  501    0  0.18071279812E+02  0.24601537475E+02 -0.79761720951E+03  0.79820111482E+03  0.00000000000E+00 0.  1.
         -1    1    1    2    0  502 -0.19839389678E+02 -0.25697281303E+02 -0.14623318663E+03  0.14979351295E+03  0.00000000000E+00 0. -1.
<mgrwt>
<rscale>  1 0.30000000E+03</rscale>
<asrwt>0</asrwt>
<pdfrwt beam="1">  1       21 0.76077211E-02 0.30000000E+03</pdfrwt>
<pdfrwt beam="2">0</pdfrwt>
<totfact> 0.13951616E+04</totfact>
</mgrwt>
</event>
<event>
 6    1  0.1273846E-001  0.3000000E+03  0.7818608E-02  0.1093470E+00
         21   -1    0    0  501  502  0.00000000000E+00  0.00000000000E+00  0.18483297934E+01  0.18483297934E+01  0.00000000000E+00 0. -1.
         13   -1    0    0    0    0 -0.00000000000E+00 -0.00000000000E+00 -0.10000000000E+04  0.10000000000E+04  0.00000000000E+00 0.  1.
    9000005    2    1    2  501    0  0.21927313678E+02 -0.32634791317E+02 -0.70064013315E+03  0.70175009359E+03  0.32803942651E+01 0.  0.
         13    1    3    3    0    0  0.17902844539E+02 -0.24303535058E+02 -0.54451487382E+03  0.54535091589E+03  0.00000000000E+00 0.  1.
          1    1    3    3  501    0  0.40244691397E+01 -0.83312562590E+01 -0.15612525934E+03  0.15639917770E+03  0.00000000000E+00 0.  1.
         -3    1    1    2    0  502 -0.21927313678E+02  0.32634791317E+02 -0.29751153705E+03  0.30009823620E+03  0.00000000000E+00 0. -1.
<mgrwt>
<rscale>  1 0.30000000E+03</rscale>
<asrwt>0</asrwt>
<pdfrwt beam="1">  1       21 0.67212134E-02 0.30000000E+03</pdfrwt>
<pdfrwt beam="2">0</pdfrwt>
<totfact> 0.17315954E+04</totfact>
</mgrwt>
</event>
<event>
 6    1  0.1273846E-001  0.3000000E+03  0.7818608E-02  0.1093470E+00
         21   -1    0    0  501  502  0.00000000000E+00  0.00000000000E+00  0.55821287045E+01  0.55821287045E+01  0.00000000000E+00 0. -1.
         13   -1    0    0    0    0 -0.00000000000E+00 -0.00000000000E+00 -0.10000000000E+04  0.10000000000E+04  0.00000000000E+00 0.  1.
    9000005    2    1    2  501    0  0.22003332074E+02  0.26620268565E+02 -0.94302125614E+03  0.94365961769E+03  0.34057608569E+01 0.  0.
         13    1    3    3    0    0  0.21392852878E+02  0.24643413407E+02 -0.88895102482E+03  0.88954981677E+03  0.00000000000E+00 0.  1.
          3    1    3    3  501    0  0.61047919585E+00  0.19768551583E+01 -0.54070231320E+02  0.54109800925E+02  0.00000000000E+00 0.  1.
         -3    1    1    2    0  502 -0.22003332074E+02 -0.26620268565E+02 -0.51396615155E+02  0.61922511013E+02  0.00000000000E+00 0. -1.
<mgrwt>
<rscale>  1 0.30000000E+03</rscale>
<asrwt>0</asrwt>
<pdfrwt beam="1">  1       21 0.20298693E-01 0.30000000E+03</pdfrwt>
<pdfrwt beam="2">0</pdfrwt>
<totfact> 0.23322296E+03</totfact>
</mgrwt>
</event>
<event>
 6    1  0.1273846E-001  0.3000000E+03  0.7818608E-02  0.1093470E+00
         21   -1    0    0  501  502  0.00000000000E+00  0.00000000000E+00  0.15867045576E+01  0.15867045576E+01  0.00000000000E+00 0. -1.
         13   -1    0    0    0    0 -0.00000000000E+00 -0.00000000000E+00 -0.10000000000E+04  0.10000000000E+04  0.00000000000E+00 0.  1.
    9000005    2    1    2  501    0  0.91939435147E+01  0.37874018201E+02 -0.59895253532E+03  0.60022917226E+03  0.34568507447E+01 0.  0.
         13    1    3    3    0    0  0.46900273066E+00  0.77515077512E+01 -0.11751756905E+03  0.11777387177E+03  0.00000000000E+00 0.  1.
          1    1    3    3  501    0  0.87249407841E+01  0.30122510450E+02 -0.48143496627E+03  0.48245530049E+03  0.00000000000E+00 0.  1.
         -1    1    1    2    0  502 -0.91939435147E+01 -0.37874018201E+02 -0.39946076012E+03  0.40135753230E+03  0.00000000000E+00 0. -1.
<mgrwt>
<rscale>  1 0.30000000E+03</rscale>
<asrwt>0</asrwt>
<pdfrwt beam="1">  1       21 0.57698469E-02 0.30000000E+03</pdfrwt>
<pdfrwt beam="2">0</pdfrwt>
<totfact> 0.22540959E+04</totfact>
</mgrwt>
</event>
<event>
 6    1  0.1273846E-001  0.3000000E+03  0.7818608E-02  0.1093470E+00
         21   -1    0    0  501  502  0.00000000000E+00  0.00000000000E+00  0.11697956795E+01  0.11697956795E+01  0.00000000000E+00 0. -1.
         13   -1    0    0    0    0 -0.00000000000E+00 -0.00000000000E+00 -0.10000000000E+04  0.10000000000E+04  0.00000000000E+00 0.  1.
    9000005    2    1    2  501    0  0.29303647886E+02 -0.14695376184E+02 -0.37404357441E+03  0.37552373697E+03  0.59011534270E+01 0.  0.
         13    1    3    3    0    0  0.17077192522E+02 -0.82719765856E+01 -0.24829222993E+03  0.24901623952E+03  0.00000000000E+00 0.  1.
          1    1    3    3  501    0  0.12226455364E+02 -0.64233995986E+01 -0.12575134448E+03  0.12650749745E+03  0.00000000000E+00 0.  1.
         -3    1    1    2    0  502 -0.29303647886E+02  0.14695376184E+02 -0.62478662991E+03  0.62564605871E+03  0.00000000000E+00 0. -1.
<mgrwt>
<rscale>  1 0.30000000E+03</rscale>
<asrwt>0</asrwt>
<pdfrwt beam="1">  1       21 0.42538114E-02 0.30000000E+03</pdfrwt>
<pdfrwt beam="2">0</pdfrwt>
<totfact> 0.37902483E+04</totfact>
</mgrwt>
</event>
<event>
 6    1  0.1273846E-001  0.3000000E+03  0.7818608E-02  0.1093470E+00
         21   -1    0    0  501  502  0.00000000000E+00  0.00000000000E+00  0.14124397785E+01  0.14124397785E+01  0.00000000000E+00 0. -1.
         13   -1    0    0    0    0 -0.00000000000E+00 -0.00000000000E+00 -0.10000000000E+04  0.10000000000E+04  0.00000000000E+00 0.  1.
    9000005    2    1    2  501    0  0.30379628475E+02 -0.20757869597E+02 -0.59197451357E+03  0.59313804591E+03  0.50105708393E+01 0.  0.
         13    1    3    3    0    0  0.63568652648E+01 -0.32548971121E+01 -0.89003389301E+02  0.89289458495E+02  0.00000000000E+00 0.  1.
          3    1    3    3  501    0  0.24022763210E+02 -0.17502972485E+02 -0.50297112426E+03  0.50384858742E+03  0.00000000000E+00 0.  1.
         -1    1    1    2    0  502 -0.30379628475E+02  0.20757869597E+02 -0.40661304666E+03  0.40827439387E+03  0.00000000000E+00 0. -1.
<mgrwt>
<rscale>  1 0.30000000E+03</rscale>
<asrwt>0</asrwt>
<pdfrwt beam="1">  1       21 0.51361555E-02 0.30000000E+03</pdfrwt>
<pdfrwt beam="2">0</pdfrwt>
<totfact> 0.27514268E+04</totfact>
</mgrwt>
</event>
<event>
 6    1  0.1273846E-001  0.3000000E+03  0.7818608E-02  0.1093470E+00
         21   -1    0    0  501  502  0.00000000000E+00  0.00000000000E+00  0.25932425367E+01  0.25932425367E+01  0.00000000000E+00 0. -1.
         13   -1    0    0    0    0 -0.00000000000E+00 -0.00000000000E+00 -0.10000000000E+04  0.10000000000E+04  0.00000000000E+00 0.  1.
    9000005    2    1    2  501    0 -0.35824218849E+01  0.45126922554E+02 -0.72495919963E+03  0.72641043233E+03  0.75499788058E+01 0.  0.
         13    1    3    3    0    0 -0.45237239466E+01  0.17252194481E+02 -0.31365941051E+03  0.31416608362E+03  0.00000000000E+00 0.  1.
          1    1    3    3  501    0  0.94130206173E+00  0.27874728074E+02 -0.41129978912E+03  0.41224434871E+03  0.00000000000E+00 0.  1.
         -1    1    1    2    0  502  0.35824218849E+01 -0.45126922554E+02 -0.27244755783E+03  0.27618281021E+03  0.00000000000E+00 0. -1.
<mgrwt>
<rscale>  1 0.30000000E+03</rscale>
<asrwt>0</asrwt>
<pdfrwt beam="1">  1       21 0.94299927E-02 0.30000000E+03</pdfrwt>
<pdfrwt beam="2">0</pdfrwt>
<totfact> 0.95527122E+03</totfact>
</mgrwt>
</event>
<event>
 6    1  0.1273846E-001  0.3000000E+03  0.7818608E-02  0.1093470E+00
         21   -1    0    0  501  502  0.00000000000E+00  0.00000000000E+00  0.10432603541E+01  0.10432603541E+01  0.00000000000E+00 0. -1.
         13   -1    0    0    0    0 -0.00000000000E+00 -0.00000000000E+00 -0.10000000000E+04  0.10000000000E+04  0.00000000000E+00 0.  1.
    9000005    2    1    2  501    0 -0.26001008520E+02  0.16518152513E+02 -0.64729693185E+03  0.64803685499E+03  0.30896021030E+01 0.  0.
         13    1    3    3    0    0 -0.14577302083E+02  0.83053560062E+01 -0.37928756425E+03  0.37965844264E+03  0.00000000000E+00 0.  1.
          1    1    3    3  501    0 -0.11423706437E+02  0.82127965064E+01 -0.26800936761E+03  0.26837841236E+03  0.00000000000E+00 0.  1.
         -1    1    1    2    0  502  0.26001008520E+02 -0.16518152513E+02 -0.35165980779E+03  0.35300640536E+03  0.00000000000E+00 0. -1.
<mgrwt>
<rscale>  1 0.30000000E+03</rscale>
<asrwt>0</asrwt>
<pdfrwt beam="1">  1       21 0.37936820E-02 0.30000000E+03</pdfrwt>
<pdfrwt beam="2">0</pdfrwt>
<totfact> 0.45964403E+04</totfact>
</mgrwt>
</event>
<event>
 6    1  0.1273846E-001  0.3000000E+03  0.7818608E-02  0.1093470E+00
         21   -1    0    0  501  502  0.00000000000E+00  0.00000000000E+00  0.17558286415E+01  0.17558286415E+01  0.00000000000E+00 0. -1.
         13   -1    0    0    0    0 -0.00000000000E+00 -0.00000000000E+00 -0.10000000000E+04  0.10000000000E+04  0.00000000000E+00 0.  1.
    9000005    2    1    2  501    0  0.35774036207E+02  0.15941357148E+02 -0.32351475437E+03  0.32589068331E+03  0.30054340877E+01 0.  0.
         13    1    3    3    0    0  0.17798581955E+02  0.80490825354E+01 -0.14892077988E+03  0.15019645778E+03  0.00000000000E+00 0.  1.
          1    1    3    3  501    0  0.17975454252E+02  0.78922746130E+01 -0.17459397449E+03  0.17569422553E+03  0.00000000000E+00 0.  1.
         -1    1    1    2    0  502 -0.35774036207E+02 -0.15941357148E+02 -0.67472941698E+03  0.67586514533E+03  0.00000000000E+00 0. -1.
<mgrwt>
<rscale>  1 0.30000000E+03</rscale>
<asrwt>0</asrwt>
<pdfrwt beam="1">  1       21 0.63848449E-02 0.30000000E+03</pdfrwt>
<pdfrwt beam="2">0</pdfrwt>
<totfact> 0.18926533E+04</totfact>
</mgrwt>
</event>
<event>
 6    1  0.1273846E-001  0.3000000E+03  0.7818608E-02  0.1093470E+00
         21   -1    0    0  501  502  0.00000000000E+00  0.00000000000E+00  0.20789406989E+01  0.20789406989E+01  0.00000000000E+00 0. -1.
         13   -1    0    0    0    0 -0.00000000000E+00 -0.00000000000E+00 -0.10000000000E+04  0.10000000000E+04  0.00000000000E+00 0.  1.
    9000005    2    1    2  501    0 -0.39773333171E+02  0.18503261209E+02 -0.36510608470E+03  0.36774536853E+03  0.31486949880E+01 0.  0.
         13    1    3    3    0    0 -0.22710641812E+02  0.11838284437E+02 -0.22147191883E+03  0.22294781690E+03  0.00000000000E+00 0.  1.
          1    1    3    3  501    0 -0.17062691359E+02  0.66649767715E+01 -0.14363416587E+03  0.14479755163E+03  0.00000000000E+00 0.  1.
         -1    1    1    2    0  502  0.39773333171E+02 -0.18503261209E+02 -0.63281497460E+03  0.63433357217E+03  0.00000000000E+00 0. -1.
<mgrwt>
<rscale>  1 0.30000000E+03</rscale>
<asrwt>0</asrwt>
<pdfrwt beam="1">  1       21 0.75598003E-02 0.30000000E+03</pdfrwt>
<pdfrwt beam="2">0</pdfrwt>
<totfact> 0.14106903E+04</totfact>
</mgrwt>
</event>
<event>
 6    1  0.1273846E-001  0.3000000E+03  0.7818608E-02  0.1093470E+00
         21   -1    0    0  501  502  0.00000000000E+00  0.00000000000E+00  0.18464110869E+01  0.18464110869E+01  0.00000000000E+00 0. -1.
         13   -1    0    0    0    0 -0.00000000000E+00 -0.00000000000E+00 -0.10000000000E+04  0.10000000000E+04  0.00000000000E+00 0.  1.
    9000005    2    1    2  501    0 -0.38805492520E+01 -0.39275121801E+02 -0.69588220708E+03  0.69700943477E+03  0.35372549123E+01 0.  0.
         13    1    3    3    0    0 -0.34793902245E+01 -0.31005118421E+02 -0.57277010083E+03  0.57361922207E+03  0.00000000000E+00 0.  1.
          1    1    3    3  501    0 -0.40115902750E+00 -0.82700033801E+01 -0.12311210625E+03  0.12339021270E+03  0.00000000000E+00 0.  1.
         -3    1    1    2    0  502  0.38805492520E+01  0.39275121801E+02 -0.30227138183E+03  0.30483697632E+03  0.00000000000E+00 0. -1.
<mgrwt>
<rscale>  1 0.30000000E+03</rscale>
<asrwt>0</asrwt>
<pdfrwt beam="1">  1       21 0.67142363E-02 0.30000000E+03</pdfrwt>
<pdfrwt beam="2">0</pdfrwt>
<totfact> 0.17347186E+04</totfact>
</mgrwt>
</event>
<event>
 6    1  0.1273846E-001  0.3000000E+03  0.7818608E-02  0.1093470E+00
         21   -1    0    0  501  502  0.00000000000E+00  0.00000000000E+00  0.16917840182E+01  0.16917840182E+01  0.00000000000E+00 0. -1.
         13   -1    0    0    0    0 -0.00000000000E+00 -0.00000000000E+00 -0.10000000000E+04  0.10000000000E+04  0.00000000000E+00 0.  1.
    9000005    2    1    2  501    0  0.80506906709E+01  0.33179427613E+02 -0.77789976606E+03  0.77865462829E+03  0.30489488403E+01 0.  0.
         13    1    3    3    0    0  0.80089955067E-01  0.75962909510E+00 -0.98279863612E+01  0.98576247990E+01  0.00000000000E+00 0.  1.
          1    1    3    3  501    0  0.79706007158E+01  0.32419798518E+02 -0.76807177970E+03  0.76879700349E+03  0.00000000000E+00 0.  1.
         -1    1    1    2    0  502 -0.80506906709E+01 -0.33179427613E+02 -0.22040844992E+03  0.22303715572E+03  0.00000000000E+00 0. -1.
<mgrwt>
<rscale>  1 0.30000000E+03</rscale>
<asrwt>0</asrwt>
<pdfrwt beam="1">  1       21 0.61519549E-02 0.30000000E+03</pdfrwt>
<pdfrwt beam="2">0</pdfrwt>
<totfact> 0.20181633E+04</totfact>
</mgrwt>
</event>
<event>
 6    1  0.1273846E-001  0.3000000E+03  0.7818608E-02  0.1093470E+00
         21   -1    0    0  501  502  0.00000000000E+00  0.00000000000E+00  0.17696970300E+01  0.17696970300E+01  0.00000000000E+00 0. -1.
         13   -1    0    0    0    0 -0.00000000000E+00 -0.00000000000E+00 -0.10000000000E+04  0.10000000000E+04  0.00000000000E+00 0.  1.
    9000005    2    1    2  501    0  0.37056024901E+02 -0.78041019102E+01 -0.71615260466E+03  0.71716140328E+03  0.34456064046E+01 0.  0.
         13    1    3    3    0    0  0.30617387880E+02 -0.76520826285E+01 -0.58454602694E+03  0.58539733210E+03  0.00000000000E+00 0.  1.
          3    1    3    3  501    0  0.64386370213E+01 -0.15201928169E+00 -0.13160657772E+03  0.13176407118E+03  0.00000000000E+00 0.  1.
         -3    1    1    2    0  502 -0.37056024901E+02  0.78041019102E+01 -0.28207769831E+03  0.28460829375E+03  0.00000000000E+00 0. -1.
<mgrwt>
<rscale>  1 0.30000000E+03</rscale>
<asrwt>0</asrwt>
<pdfrwt beam="1">  1       21 0.64352755E-02 0.30000000E+03</pdfrwt>
<pdfrwt beam="2">0</pdfrwt>
<totfact> 0.18670672E+04</totfact>
</mgrwt>
</event>
<event>
 6    1  0.1273846E-001  0.3000000E+03  0.7818608E-02  0.1093470E+00
         21   -1    0    0  501  502  0.00000000000E+00  0.00000000000E+00  0.17449769588E+01  0.17449769588E+01  0.00000000000E+00 0. -1.
         13   -1    0    0    0    0 -0.00000000000E+00 -0.00000000000E+00 -0.10000000000E+04  0.10000000000E+04  0.00000000000E+00 0.  1.
    9000005    2    1    2  501    0  0.22929550975E+01  0.35868472046E+02 -0.75377182283E+03  0.75463398952E+03  0.29482721741E+01 0.  0.
         13    1    3    3    0    0  0.18244714637E+01  0.94992442533E+01 -0.19241997477E+03  0.19266294669E+03  0.00000000000E+00 0.  1.
          3    1    3    3  501    0  0.46848363379E+00  0.26369227792E+02 -0.56135184806E+03  0.56197104283E+03  0.00000000000E+00 0.  1.
         -3    1    1    2    0  502 -0.22929550975E+01 -0.35868472046E+02 -0.24448320021E+03  0.24711098744E+03  0.00000000000E+00 0. -1.
<mgrwt>
<rscale>  1 0.30000000E+03</rscale>
<asrwt>0</asrwt>
<pdfrwt beam="1">  1       21 0.63453841E-02 0.30000000E+03</pdfrwt>
<pdfrwt beam="2">0</pdfrwt>
<totfact> 0.19130541E+04</totfact>
</mgrwt>
</event>
<event>
 6    1  0.1273846E-001  0.3000000E+03  0.7818608E-02  0.1093470E+00
         21   -1    0    0  501  502  0.00000000000E+00  0.00000000000E+00  0.39658089194E+01  0.39658089194E+01  0.00000000000E+00 0. -1.
         13   -1    0    0    0    0 -0.00000000000E+00 -0.00000000000E+00 -0.10000000000E+04  0.10000000000E+04  0.00000000000E+00 0.  1.
    9000005    2    1    2  501    0 -0.68531989583E+01 -0.35551086945E+02 -0.90865800114E+03  0.90938544791E+03  0.34181468161E+01 0.  0.
         13    1    3    3    0    0 -0.14820902578E+01 -0.40637141628E+01 -0.88452110542E+02  0.88557812889E+02  0.00000000000E+00 0.  1.
          3    1    3    3  501    0 -0.53711087005E+01 -0.31487372783E+02 -0.82020589059E+03  0.82082763502E+03  0.00000000000E+00 0.  1.
         -1    1    1    2    0  502  0.68531989583E+01  0.35551086945E+02 -0.87376189945E+02  0.94580361007E+02  0.00000000000E+00 0. -1.
<mgrwt>
<rscale>  1 0.30000000E+03</rscale>
<asrwt>0</asrwt>
<pdfrwt beam="1">  1       21 0.14421154E-01 0.30000000E+03</pdfrwt>
<pdfrwt beam="2">0</pdfrwt>
<totfact> 0.44284626E+03</totfact>
</mgrwt>
</event>
<event>
 6    1  0.1273846E-001  0.3000000E+03  0.7818608E-02  0.1093470E+00
         21   -1    0    0  501  502  0.00000000000E+00  0.00000000000E+00  0.28889294324E+01  0.28889294324E+01  0.00000000000E+00 0. -1.
         13   -1    0    0    0    0 -0.00000000000E+00 -0.00000000000E+00 -0.10000000000E+04  0.10000000000E+04  0.00000000000E+00 0.  1.
    9000005    2    1    2  501    0  0.32621726608E+01 -0.42047376325E+02 -0.80884988434E+03  0.80996174663E+03  0.46121548023E+01 0.  0.
         13    1    3    3    0    0  0.28012985964E+01 -0.38403409596E+02 -0.75943808396E+03  0.76041361937E+03  0.00000000000E+00 0.  1.
          3    1    3    3  501    0  0.46087406443E+00 -0.36439667295E+01 -0.49411800379E+02  0.49548127262E+02  0.00000000000E+00 0.  1.
         -1    1    1    2    0  502 -0.32621726608E+01  0.42047376325E+02 -0.18826118622E+03  0.19292718280E+03  0.00000000000E+00 0. -1.
<mgrwt>
<rscale>  1 0.30000000E+03</rscale>
<asrwt>0</asrwt>
<pdfrwt beam="1">  1       21 0.10505220E-01 0.30000000E+03</pdfrwt>
<pdfrwt beam="2">0</pdfrwt>
<totfact> 0.78768476E+03</totfact>
</mgrwt>
</event>
<event>
 6    1  0.1273846E-001  0.3000000E+03  0.7818608E-02  0.1093470E+00
         21   -1    0    0  501  502  0.00000000000E+00  0.00000000000E+00  0.12700781174E+01  0.12700781174E+01  0.00000000000E+00 0. -1.
         13   -1    0    0    0    0 -0.00000000000E+00 -0.00000000000E+00 -0.10000000000E+04  0.10000000000E+04  0.00000000000E+00 0.  1.
    9000005    2    1    2  501    0  0.30838458868E+02  0.14197280882E+02 -0.35132443414E+03  0.35297505354E+03  0.31554824571E+01 0.  0.
         13    1    3    3    0    0  0.18068585499E+01  0.10667557213E+01 -0.15275058731E+02  0.15418499435E+02  0.00000000000E+00 0.  1.
          1    1    3    3  501    0  0.29031600318E+02  0.13130525161E+02 -0.33604937541E+03  0.33755655411E+03  0.00000000000E+00 0.  1.
         -3    1    1    2    0  502 -0.30838458868E+02 -0.14197280882E+02 -0.64740548774E+03  0.64829502457E+03  0.00000000000E+00 0. -1.
<mgrwt>
<rscale>  1 0.30000000E+03</rscale>
<asrwt>0</asrwt>
<pdfrwt beam="1">  1       21 0.46184756E-02 0.30000000E+03</pdfrwt>
<pdfrwt beam="2">0</pdfrwt>
<totfact> 0.32970470E+04</totfact>
</mgrwt>
</event>
<event>
 6    1  0.1273846E-001  0.3000000E+03  0.7818608E-02  0.1093470E+00
         21   -1    0    0  501  502  0.00000000000E+00  0.00000000000E+00  0.15003051354E+02  0.15003051354E+02  0.00000000000E+00 0. -1.
         13   -1    0    0    0    0 -0.00000000000E+00 -0.00000000000E+00 -0.10000000000E+04  0.10000000000E+04  0.00000000000E+00 0.  1.
    9000005    2    1    2  501    0 -0.69546040288E+02 -0.93268072394E+02 -0.33413182834E+03  0.35382154081E+03  0.31652784380E+01 0.  0.
         13    1    3    3    0    0 -0.15569585799E+02 -0.22288622853E+02 -0.74944508305E+02  0.79723735711E+02  0.00000000000E+00 0.  1.
          1    1    3    3  501    0 -0.53976454488E+02 -0.70979449541E+02 -0.25918732003E+03  0.27409780510E+03  0.00000000000E+00 0.  1.
         -1    1    1    2    0  502  0.69546040288E+02  0.93268072394E+02 -0.65086512031E+03  0.66118151054E+03  0.00000000000E+00 0. -1.
<mgrwt>
<rscale>  1 0.30000000E+03</rscale>
<asrwt>0</asrwt>
<pdfrwt beam="1">  1       21 0.54556665E-01 0.30000000E+03</pdfrwt>
<pdfrwt beam="2">0</pdfrwt>
<totfact> 0.31039968E+02</totfact>
</mgrwt>
</event>
<event>
 6    1  0.1273846E-001  0.3000000E+03  0.7818608E-02  0.1093470E+00
         21   -1    0    0  501  502  0.00000000000E+00  0.00000000000E+00  0.20593839727E+01  0.20593839727E+01  0.00000000000E+00 0. -1.
         13   -1    0    0    0    0 -0.00000000000E+00 -0.00000000000E+00 -0.10000000000E+04  0.10000000000E+04  0.00000000000E+00 0.  1.
    9000005    2    1    2  501    0 -0.90085125027E+01 -0.38798909801E+02 -0.73852947694E+03  0.73960815463E+03  0.28152071674E+01 0.  0.
         13    1    3    3    0    0 -0.76687139808E+01 -0.34087169229E+02 -0.62983721184E+03  0.63080556251E+03  0.00000000000E+00 0.  1.
          1    1    3    3  501    0 -0.13397985220E+01 -0.47117405720E+01 -0.10869226510E+03  0.10880259212E+03  0.00000000000E+00 0.  1.
         -3    1    1    2    0  502  0.90085125027E+01  0.38798909801E+02 -0.25941113909E+03  0.26245122934E+03  0.00000000000E+00 0. -1.
<mgrwt>
<rscale>  1 0.30000000E+03</rscale>
<asrwt>0</asrwt>
<pdfrwt beam="1">  1       21 0.74886848E-02 0.30000000E+03</pdfrwt>
<pdfrwt beam="2">0</pdfrwt>
<totfact> 0.14342326E+04</totfact>
</mgrwt>
</event>
<event>
 6    1  0.1273846E-001  0.3000000E+03  0.7818608E-02  0.1093470E+00
         21   -1    0    0  501  502  0.00000000000E+00  0.00000000000E+00  0.10265977302E+01  0.10265977302E+01  0.00000000000E+00 0. -1.
         13   -1    0    0    0    0 -0.00000000000E+00 -0.00000000000E+00 -0.10000000000E+04  0.10000000000E+04  0.00000000000E+00 0.  1.
    9000005    2    1    2  501    0  0.14030445420E+02 -0.28573113950E+02 -0.52845558342E+03  0.52943324102E+03  0.45800445470E+01 0.  0.
         13    1    3    3    0    0  0.22463569814E+01 -0.28666458719E+01 -0.42604813557E+02  0.42760190791E+02  0.00000000000E+00 0.  1.
          3    1    3    3  501    0  0.11784088439E+02 -0.25706468078E+02 -0.48585076986E+03  0.48667305023E+03  0.00000000000E+00 0.  1.
         -1    1    1    2    0  502 -0.14030445420E+02  0.28573113950E+02 -0.47051781885E+03  0.47159335671E+03  0.00000000000E+00 0. -1.
<mgrwt>
<rscale>  1 0.30000000E+03</rscale>
<asrwt>0</asrwt>
<pdfrwt beam="1">  1       21 0.37330905E-02 0.30000000E+03</pdfrwt>
<pdfrwt beam="2">0</pdfrwt>
<totfact> 0.47224287E+04</totfact>
</mgrwt>
</event>
<event>
 6    1  0.1273846E-001  0.3000000E+03  0.7818608E-02  0.1093470E+00
         21   -1    0    0  501  502  0.00000000000E+00  0.00000000000E+00  0.31212516345E+01  0.31212516345E+01  0.00000000000E+00 0. -1.
         13   -1    0    0    0    0 -0.00000000000E+00 -0.00000000000E+00 -0.10000000000E+04  0.10000000000E+04  0.00000000000E+00 0.  1.
    9000005    2    1    2  501    0 -0.23622949937E+02 -0.46899444019E+02 -0.66643081430E+03  0.66852681244E+03  0.63613746317E+01 0.  0.
         13    1    3    3    0    0 -0.76499645153E+01 -0.13551153626E+02 -0.16367486802E+03  0.16441295005E+03  0.00000000000E+00 0.  1.
          1    1    3    3  501    0 -0.15972985421E+02 -0.33348290392E+02 -0.50275594627E+03  0.50411386239E+03  0.00000000000E+00 0.  1.
         -3    1    1    2    0  502  0.23622949937E+02  0.46899444019E+02 -0.33044793407E+03  0.33459443920E+03  0.00000000000E+00 0. -1.
<mgrwt>
<rscale>  1 0.30000000E+03</rscale>
<asrwt>0</asrwt>
<pdfrwt beam="1">  1       21 0.11350030E-01 0.30000000E+03</pdfrwt>
<pdfrwt beam="2">0</pdfrwt>
<totfact> 0.68540782E+03</totfact>
</mgrwt>
</event>
<event>
 6    1  0.1273846E-001  0.3000000E+03  0.7818608E-02  0.1093470E+00
         21   -1    0    0  501  502  0.00000000000E+00  0.00000000000E+00  0.22632223600E+01  0.22632223600E+01  0.00000000000E+00 0. -1.
         13   -1    0    0    0    0 -0.00000000000E+00 -0.00000000000E+00 -0.10000000000E+04  0.10000000000E+04  0.00000000000E+00 0.  1.
    9000005    2    1    2  501    0  0.25288302445E+02  0.23434585836E+02 -0.84394257833E+03  0.84465188459E+03  0.30087473911E+01 0.  0.
         13    1    3    3    0    0  0.54470949661E+01  0.51802850093E+01 -0.21606826662E+03  0.21619898713E+03  0.00000000000E+00 0.  1.
          1    1    3    3  501    0  0.19841207479E+02  0.18254300826E+02 -0.62787431171E+03  0.62845289745E+03  0.00000000000E+00 0.  1.
         -3    1    1    2    0  502 -0.25288302445E+02 -0.23434585836E+02 -0.15379419931E+03  0.15761133777E+03  0.00000000000E+00 0. -1.
<mgrwt>
<rscale>  1 0.30000000E+03</rscale>
<asrwt>0</asrwt>
<pdfrwt beam="1">  1       21 0.82299168E-02 0.30000000E+03</pdfrwt>
<pdfrwt beam="2">0</pdfrwt>
<totfact> 0.12153189E+04</totfact>
</mgrwt>
</event>
<event>
 6    1  0.1273846E-001  0.3000000E+03  0.7818608E-02  0.1093470E+00
         21   -1    0    0  501  502  0.00000000000E+00  0.00000000000E+00  0.34175308289E+01  0.34175308289E+01  0.00000000000E+00 0. -1.
         13   -1    0    0    0    0 -0.00000000000E+00 -0.00000000000E+00 -0.10000000000E+04  0.10000000000E+04  0.00000000000E+00 0.  1.
    9000005    2    1    2  501    0  0.47673156664E+02  0.98127248803E+01 -0.77506687405E+03  0.77661766681E+03  0.61091505390E+01 0.  0.
         13    1    3    3    0    0  0.16766512021E+02  0.26205520125E+01 -0.31602615755E+03  0.31648146150E+03  0.00000000000E+00 0.  1.
          1    1    3    3  501    0  0.30906644643E+02  0.71921728678E+01 -0.45904071650E+03  0.46013620531E+03  0.00000000000E+00 0.  1.
         -3    1    1    2    0  502 -0.47673156664E+02 -0.98127248803E+01 -0.22151559512E+03  0.22679986402E+03  0.00000000000E+00 0. -1.
<mgrwt>
<rscale>  1 0.30000000E+03</rscale>
<asrwt>0</asrwt>
<pdfrwt beam="1">  1       21 0.12427411E-01 0.30000000E+03</pdfrwt>
<pdfrwt beam="2">0</pdfrwt>
<totfact> 0.58150419E+03</totfact>
</mgrwt>
</event>
<event>
 6    1  0.1273846E-001  0.3000000E+03  0.7818608E-02  0.1093470E+00
         21   -1    0    0  501  502  0.00000000000E+00  0.00000000000E+00  0.22521942521E+01  0.22521942521E+01  0.00000000000E+00 0. -1.
         13   -1    0    0    0    0 -0.00000000000E+00 -0.00000000000E+00 -0.10000000000E+04  0.10000000000E+04  0.00000000000E+00 0.  1.
    9000005    2    1    2  501    0  0.41472765601E+02 -0.11312857097E+02 -0.71097603320E+03  0.71227629775E+03  0.16228149926E+01 0.  0.
         13    1    3    3    0    0  0.39428019457E+02 -0.11104007886E+02 -0.67824584504E+03  0.67948163626E+03  0.00000000000E+00 0.  1.
          1    1    3    3  501    0  0.20447461434E+01 -0.20884921022E+00 -0.32730188167E+02  0.32794661490E+02  0.00000000000E+00 0.  1.
         -1    1    1    2    0  502 -0.41472765601E+02  0.11312857097E+02 -0.28677177254E+03  0.28997589650E+03  0.00000000000E+00 0. -1.
<mgrwt>
<rscale>  1 0.30000000E+03</rscale>
<asrwt>0</asrwt>
<pdfrwt beam="1">  1       21 0.81898146E-02 0.30000000E+03</pdfrwt>
<pdfrwt beam="2">0</pdfrwt>
<totfact> 0.12258072E+04</totfact>
</mgrwt>
</event>
<event>
 6    1  0.1273846E-001  0.3000000E+03  0.7818608E-02  0.1093470E+00
         21   -1    0    0  501  502  0.00000000000E+00  0.00000000000E+00  0.56596147842E+01  0.56596147842E+01  0.00000000000E+00 0. -1.
         13   -1    0    0    0    0 -0.00000000000E+00 -0.00000000000E+00 -0.10000000000E+04  0.10000000000E+04  0.00000000000E+00 0.  1.
    9000005    2    1    2  501    0 -0.31726966778E+02 -0.50085535540E+02 -0.80653456435E+03  0.80871752268E+03  0.32964689616E+01 0.  0.
         13    1    3    3    0    0 -0.27538436813E+02 -0.43420039600E+02 -0.71378925643E+03  0.71563871327E+03  0.00000000000E+00 0.  1.
          3    1    3    3  501    0 -0.41885299652E+01 -0.66654959395E+01 -0.92745307923E+02  0.93078809409E+02  0.00000000000E+00 0.  1.
         -3    1    1    2    0  502  0.31726966778E+02  0.50085535540E+02 -0.18780582087E+03  0.19694209210E+03  0.00000000000E+00 0. -1.
<mgrwt>
<rscale>  1 0.30000000E+03</rscale>
<asrwt>0</asrwt>
<pdfrwt beam="1">  1       21 0.20580461E-01 0.30000000E+03</pdfrwt>
<pdfrwt beam="2">0</pdfrwt>
<totfact> 0.22715425E+03</totfact>
</mgrwt>
</event>
<event>
 6    1  0.1273846E-001  0.3000000E+03  0.7818608E-02  0.1093470E+00
         21   -1    0    0  501  502  0.00000000000E+00  0.00000000000E+00  0.25858694167E+01  0.25858694167E+01  0.00000000000E+00 0. -1.
         13   -1    0    0    0    0 -0.00000000000E+00 -0.00000000000E+00 -0.10000000000E+04  0.10000000000E+04  0.00000000000E+00 0.  1.
    9000005    2    1    2  501    0  0.44815363309E+02 -0.23903117667E+02 -0.50855168296E+03  0.51109195438E+03  0.32242467275E+01 0.  0.
         13    1    3    3    0    0  0.28211254610E+02 -0.14052016218E+02 -0.32820936889E+03  0.32971915910E+03  0.00000000000E+00 0.  1.
          3    1    3    3  501    0  0.16604108699E+02 -0.98511014488E+01 -0.18034231406E+03  0.18137279528E+03  0.00000000000E+00 0.  1.
         -3    1    1    2    0  502 -0.44815363309E+02  0.23903117667E+02 -0.48886244763E+03  0.49149391504E+03  0.00000000000E+00 0. -1.
<mgrwt>
<rscale>  1 0.30000000E+03</rscale>
<asrwt>0</asrwt>
<pdfrwt beam="1">  1       21 0.94031813E-02 0.30000000E+03</pdfrwt>
<pdfrwt beam="2">0</pdfrwt>
<totfact> 0.96012395E+03</totfact>
</mgrwt>
</event>
<event>
 6    1  0.1273846E-001  0.3000000E+03  0.7818608E-02  0.1093470E+00
         21   -1    0    0  501  502  0.00000000000E+00  0.00000000000E+00  0.10994467466E+01  0.10994467466E+01  0.00000000000E+00 0. -1.
         13   -1    0    0    0    0 -0.00000000000E+00 -0.00000000000E+00 -0.10000000000E+04  0.10000000000E+04  0.00000000000E+00 0.  1.
    9000005    2    1    2  501    0  0.26860812456E+02 -0.18055814757E+02 -0.60172826581E+03  0.60261062431E+03  0.38913964900E+01 0.  0.
         13    1    3    3    0    0  0.17967674849E+02 -0.10416640255E+02 -0.40739261848E+03  0.40792167057E+03  0.00000000000E+00 0.  1.
          3    1    3    3  501    0  0.88931376075E+01 -0.76391745019E+01 -0.19433564733E+03  0.19468895373E+03  0.00000000000E+00 0.  1.
         -1    1    1    2    0  502 -0.26860812456E+02  0.18055814757E+02 -0.39717228745E+03  0.39848882244E+03  0.00000000000E+00 0. -1.
<mgrwt>
<rscale>  1 0.30000000E+03</rscale>
<asrwt>0</asrwt>
<pdfrwt beam="1">  1       21 0.39979966E-02 0.30000000E+03</pdfrwt>
<pdfrwt beam="2">0</pdfrwt>
<totfact> 0.42082812E+04</totfact>
</mgrwt>
</event>
<event>
 6    1  0.1273846E-001  0.3000000E+03  0.7818608E-02  0.1093470E+00
         21   -1    0    0  501  502  0.00000000000E+00  0.00000000000E+00  0.14873425333E+01  0.14873425333E+01  0.00000000000E+00 0. -1.
         13   -1    0    0    0    0 -0.00000000000E+00 -0.00000000000E+00 -0.10000000000E+04  0.10000000000E+04  0.00000000000E+00 0.  1.
    9000005    2    1    2  501    0  0.35043750904E+02 -0.18167435492E+01 -0.30573865351E+03  0.30782518730E+03  0.69897536540E+01 0.  0.
         13    1    3    3    0    0  0.30183855016E+02  0.41453242721E+00 -0.27122833392E+03  0.27290299753E+03  0.00000000000E+00 0.  1.
          3    1    3    3  501    0  0.48598958873E+01 -0.22312759764E+01 -0.34510319592E+02  0.34922189778E+02  0.00000000000E+00 0.  1.
         -3    1    1    2    0  502 -0.35043750904E+02  0.18167435492E+01 -0.69277400396E+03  0.69366215523E+03  0.00000000000E+00 0. -1.
<mgrwt>
<rscale>  1 0.30000000E+03</rscale>
<asrwt>0</asrwt>
<pdfrwt beam="1">  1       21 0.54085297E-02 0.30000000E+03</pdfrwt>
<pdfrwt beam="2">0</pdfrwt>
<totfact> 0.25187718E+04</totfact>
</mgrwt>
</event>
<event>
 6    1  0.1273846E-001  0.3000000E+03  0.7818608E-02  0.1093470E+00
         21   -1    0    0  501  502  0.00000000000E+00  0.00000000000E+00  0.12445555634E+01  0.12445555634E+01  0.00000000000E+00 0. -1.
         13   -1    0    0    0    0 -0.00000000000E+00 -0.00000000000E+00 -0.10000000000E+04  0.10000000000E+04  0.00000000000E+00 0.  1.
    9000005    2    1    2  501    0 -0.20388065802E+02  0.27522287734E+02 -0.43568853010E+03  0.43713685346E+03  0.95385452283E+01 0.  0.
         13    1    3    3    0    0 -0.39715150904E+01  0.22508119821E+01 -0.98023812035E+02  0.98130050507E+02  0.00000000000E+00 0.  1.
          3    1    3    3  501    0 -0.16416550712E+02  0.25271475751E+02 -0.33766471806E+03  0.33900680295E+03  0.00000000000E+00 0.  1.
         -1    1    1    2    0  502  0.20388065802E+02 -0.27522287734E+02 -0.56306691434E+03  0.56410770210E+03  0.00000000000E+00 0. -1.
<mgrwt>
<rscale>  1 0.30000000E+03</rscale>
<asrwt>0</asrwt>
<pdfrwt beam="1">  1       21 0.45256661E-02 0.30000000E+03</pdfrwt>
<pdfrwt beam="2">0</pdfrwt>
<totfact> 0.34127159E+04</totfact>
</mgrwt>
</event>
<event>
 6    1  0.1273846E-001  0.3000000E+03  0.7818608E-02  0.1093470E+00
         21   -1    0    0  501  502  0.00000000000E+00  0.00000000000E+00  0.19747986090E+01  0.19747986090E+01  0.00000000000E+00 0. -1.
         13   -1    0    0    0    0 -0.00000000000E+00 -0.00000000000E+00 -0.10000000000E+04  0.10000000000E+04  0.00000000000E+00 0.  1.
    9000005    2    1    2  501    0  0.31533626444E+02  0.27367570973E+02 -0.66893759485E+03  0.67024899871E+03  0.35862145101E+01 0.  0.
         13    1    3    3    0    0 -0.45743926484E-01 -0.39207688650E-02 -0.35708902354E+01  0.35711853708E+01  0.00000000000E+00 0.  1.
          3    1    3    3  501    0  0.31579370370E+02  0.27371491742E+02 -0.66536670461E+03  0.66667781334E+03  0.00000000000E+00 0.  1.
         -3    1    1    2    0  502 -0.31533626444E+02 -0.27367570973E+02 -0.32908760655E+03  0.33172579990E+03  0.00000000000E+00 0. -1.
<mgrwt>
<rscale>  1 0.30000000E+03</rscale>
<asrwt>0</asrwt>
<pdfrwt beam="1">  1       21 0.71811010E-02 0.30000000E+03</pdfrwt>
<pdfrwt beam="2">0</pdfrwt>
<totfact> 0.15433007E+04</totfact>
</mgrwt>
</event>
<event>
 6    1  0.1273846E-001  0.3000000E+03  0.7818608E-02  0.1093470E+00
         21   -1    0    0  501  502  0.00000000000E+00  0.00000000000E+00  0.13818939770E+01  0.13818939770E+01  0.00000000000E+00 0. -1.
         13   -1    0    0    0    0 -0.00000000000E+00 -0.00000000000E+00 -0.10000000000E+04  0.10000000000E+04  0.00000000000E+00 0.  1.
    9000005    2    1    2  501    0  0.40350611700E+01 -0.33902570597E+02 -0.30417323602E+03  0.30609825151E+03  0.30192803035E+01 0.  0.
         13    1    3    3    0    0  0.36329007167E+01 -0.20123751972E+02 -0.17424877999E+03  0.17544458011E+03  0.00000000000E+00 0.  1.
          1    1    3    3  501    0  0.40216045330E+00 -0.13778818624E+02 -0.12992445603E+03  0.13065367140E+03  0.00000000000E+00 0.  1.
         -3    1    1    2    0  502 -0.40350611700E+01  0.33902570597E+02 -0.69444487001E+03  0.69528364247E+03  0.00000000000E+00 0. -1.
<mgrwt>
<rscale>  1 0.30000000E+03</rscale>
<asrwt>0</asrwt>
<pdfrwt beam="1">  1       21 0.50250796E-02 0.30000000E+03</pdfrwt>
<pdfrwt beam="2">0</pdfrwt>
<totfact> 0.28559984E+04</totfact>
</mgrwt>
</event>
<event>
 6    1  0.1273846E-001  0.3000000E+03  0.7818608E-02  0.1093470E+00
         21   -1    0    0  501  502  0.00000000000E+00  0.00000000000E+00  0.10898761505E+01  0.10898761505E+01  0.00000000000E+00 0. -1.
         13   -1    0    0    0    0 -0.00000000000E+00 -0.00000000000E+00 -0.10000000000E+04  0.10000000000E+04  0.00000000000E+00 0.  1.
    9000005    2    1    2  501    0  0.16579632471E+02  0.28423602505E+02 -0.51712735585E+03  0.51818468781E+03  0.34471890297E+01 0.  0.
         13    1    3    3    0    0  0.47045325705E+01  0.10165910730E+02 -0.15668604809E+03  0.15708595110E+03  0.00000000000E+00 0.  1.
          3    1    3    3  501    0  0.11875099901E+02  0.18257691775E+02 -0.36044130777E+03  0.36109873671E+03  0.00000000000E+00 0.  1.
         -1    1    1    2    0  502 -0.16579632471E+02 -0.28423602505E+02 -0.48178276799E+03  0.48290518834E+03  0.00000000000E+00 0. -1.
<mgrwt>
<rscale>  1 0.30000000E+03</rscale>
<asrwt>0</asrwt>
<pdfrwt beam="1">  1       21 0.39631944E-02 0.30000000E+03</pdfrwt>
<pdfrwt beam="2">0</pdfrwt>
<totfact> 0.42706851E+04</totfact>
</mgrwt>
</event>
<event>
 6    1  0.1273846E-001  0.3000000E+03  0.7818608E-02  0.1093470E+00
         21   -1    0    0  501  502  0.00000000000E+00  0.00000000000E+00  0.16329501589E+01  0.16329501589E+01  0.00000000000E+00 0. -1.
         13   -1    0    0    0    0 -0.00000000000E+00 -0.00000000000E+00 -0.10000000000E+04  0.10000000000E+04  0.00000000000E+00 0.  1.
    9000005    2    1    2  501    0 -0.37173256398E+02 -0.82312172046E+01 -0.66559631467E+03  0.66669121476E+03  0.30195700991E+01 0.  0.
         13    1    3    3    0    0 -0.27889926731E+02 -0.61238692148E+01 -0.47530932613E+03  0.47616625804E+03  0.00000000000E+00 0.  1.
          3    1    3    3  501    0 -0.92833296671E+01 -0.21073479897E+01 -0.19028698854E+03  0.19052495672E+03  0.00000000000E+00 0.  1.
         -1    1    1    2    0  502  0.37173256398E+02  0.82312172046E+01 -0.33277073517E+03  0.33494173540E+03  0.00000000000E+00 0. -1.
<mgrwt>
<rscale>  1 0.30000000E+03</rscale>
<asrwt>0</asrwt>
<pdfrwt beam="1">  1       21 0.59380131E-02 0.30000000E+03</pdfrwt>
<pdfrwt beam="2">0</pdfrwt>
<totfact> 0.21452385E+04</totfact>
</mgrwt>
</event>
<event>
 6    1  0.1273846E-001  0.3000000E+03  0.7818608E-02  0.1093470E+00
         21   -1    0    0  501  502  0.00000000000E+00  0.00000000000E+00  0.15822492875E+01  0.15822492875E+01  0.00000000000E+00 0. -1.
         13   -1    0    0    0    0 -0.00000000000E+00 -0.00000000000E+00 -0.10000000000E+04  0.10000000000E+04  0.00000000000E+00 0.  1.
    9000005    2    1    2  501    0 -0.38512665600E+02  0.94438474063E+01 -0.47248626795E+03  0.47415800238E+03  0.31821618394E+01 0.  0.
         13    1    3    3    0    0 -0.14446040944E+02  0.49097894863E+01 -0.17199571548E+03  0.17267113330E+03  0.00000000000E+00 0.  1.
          1    1    3    3  501    0 -0.24066624656E+02  0.45340579200E+01 -0.30049055247E+03  0.30148686908E+03  0.00000000000E+00 0.  1.
         -1    1    1    2    0  502  0.38512665600E+02 -0.94438474063E+01 -0.52593148276E+03  0.52742424691E+03  0.00000000000E+00 0. -1.
<mgrwt>
<rscale>  1 0.30000000E+03</rscale>
<asrwt>0</asrwt>
<pdfrwt beam="1">  1       21 0.57536459E-02 0.30000000E+03</pdfrwt>
<pdfrwt beam="2">0</pdfrwt>
<totfact> 0.22650311E+04</totfact>
</mgrwt>
</event>
<event>
 6    1  0.1273846E-001  0.3000000E+03  0.7818608E-02  0.1093470E+00
         21   -1    0    0  501  502  0.00000000000E+00  0.00000000000E+00  0.12242803572E+01  0.12242803572E+01  0.00000000000E+00 0. -1.
         13   -1    0    0    0    0 -0.00000000000E+00 -0.00000000000E+00 -0.10000000000E+04  0.10000000000E+04  0.00000000000E+00 0.  1.
    9000005    2    1    2  501    0 -0.31155218765E+02  0.22688600920E+01 -0.72411504764E+03  0.72479295050E+03  0.25344607135E+01 0.  0.
         13    1    3    3    0    0 -0.14923854520E+01  0.36656395892E+00 -0.25956167931E+02  0.26001619894E+02  0.00000000000E+00 0.  1.
          3    1    3    3  501    0 -0.29662833313E+02  0.19022961331E+01 -0.69815887971E+03  0.69879133061E+03  0.00000000000E+00 0.  1.
         -1    1    1    2    0  502  0.31155218765E+02 -0.22688600920E+01 -0.27466067200E+03  0.27643132986E+03  0.00000000000E+00 0. -1.
<mgrwt>
<rscale>  1 0.30000000E+03</rscale>
<asrwt>0</asrwt>
<pdfrwt beam="1">  1       21 0.44519380E-02 0.30000000E+03</pdfrwt>
<pdfrwt beam="2">0</pdfrwt>
<totfact> 0.35091540E+04</totfact>
</mgrwt>
</event>
<event>
 6    1  0.1273846E-001  0.3000000E+03  0.7818608E-02  0.1093470E+00
         21   -1    0    0  501  502  0.00000000000E+00  0.00000000000E+00  0.14068053026E+01  0.14068053026E+01  0.00000000000E+00 0. -1.
         13   -1    0    0    0    0 -0.00000000000E+00 -0.00000000000E+00 -0.10000000000E+04  0.10000000000E+04  0.00000000000E+00 0.  1.
    9000005    2    1    2  501    0  0.29079008058E+02 -0.12758871771E+02 -0.76503236524E+03  0.76569715642E+03  0.30394028683E+01 0.  0.
         13    1    3    3    0    0  0.13179360420E+02 -0.70040337733E+01 -0.38336346590E+03  0.38365387919E+03  0.00000000000E+00 0.  1.
          1    1    3    3  501    0  0.15899647638E+02 -0.57548379978E+01 -0.38166889934E+03  0.38204327723E+03  0.00000000000E+00 0.  1.
         -1    1    1    2    0  502 -0.29079008058E+02  0.12758871771E+02 -0.23356082946E+03  0.23570964888E+03  0.00000000000E+00 0. -1.
<mgrwt>
<rscale>  1 0.30000000E+03</rscale>
<asrwt>0</asrwt>
<pdfrwt beam="1">  1       21 0.51156664E-02 0.30000000E+03</pdfrwt>
<pdfrwt beam="2">0</pdfrwt>
<totfact> 0.27702637E+04</totfact>
</mgrwt>
</event>
<event>
 6    1  0.1273846E-001  0.3000000E+03  0.7818608E-02  0.1093470E+00
         21   -1    0    0  501  502  0.00000000000E+00  0.00000000000E+00  0.15248178217E+01  0.15248178217E+01  0.00000000000E+00 0. -1.
         13   -1    0    0    0    0 -0.00000000000E+00 -0.00000000000E+00 -0.10000000000E+04  0.10000000000E+04  0.00000000000E+00 0.  1.
    9000005    2    1    2  501    0  0.38095699632E+02  0.67907169383E+01 -0.43842133310E+03  0.44013572812E+03  0.29660891609E+01 0.  0.
         13    1    3    3    0    0  0.79226320850E+01  0.26470184285E+01 -0.95093381270E+02  0.95459551471E+02  0.00000000000E+00 0.  1.
          3    1    3    3  501    0  0.30173067547E+02  0.41436985098E+01 -0.34332795183E+03  0.34467617665E+03  0.00000000000E+00 0.  1.
         -1    1    1    2    0  502 -0.38095699632E+02 -0.67907169383E+01 -0.56005384908E+03  0.56138908970E+03  0.00000000000E+00 0. -1.
<mgrwt>
<rscale>  1 0.30000000E+03</rscale>
<asrwt>0</asrwt>
<pdfrwt beam="1">  1       21 0.55448038E-02 0.30000000E+03</pdfrwt>
<pdfrwt beam="2">0</pdfrwt>
<totfact> 0.24135935E+04</totfact>
</mgrwt>
</event>
<event>
 6    1  0.1273846E-001  0.3000000E+03  0.7818608E-02  0.1093470E+00
         21   -1    0    0  501  502  0.00000000000E+00  0.00000000000E+00  0.11410171942E+01  0.11410171942E+01  0.00000000000E+00 0. -1.
         13   -1    0    0    0    0 -0.00000000000E+00 -0.00000000000E+00 -0.10000000000E+04  0.10000000000E+04  0.00000000000E+00 0.  1.
    9000005    2    1    2  501    0 -0.19197211645E+02  0.25631486336E+02 -0.65622052886E+03  0.65700933288E+03  0.32210195707E+01 0.  0.
         13    1    3    3    0    0 -0.18642107494E+02  0.24998192574E+02 -0.64678004768E+03  0.64753136440E+03  0.00000000000E+00 0.  1.
          1    1    3    3  501    0 -0.55510415108E+00  0.63329376238E+00 -0.94404811739E+01  0.94779684745E+01  0.00000000000E+00 0.  1.
         -1    1    1    2    0  502  0.19197211645E+02 -0.25631486336E+02 -0.34263845395E+03  0.34413168432E+03  0.00000000000E+00 0. -1.
<mgrwt>
<rscale>  1 0.30000000E+03</rscale>
<asrwt>0</asrwt>
<pdfrwt beam="1">  1       21 0.41491622E-02 0.30000000E+03</pdfrwt>
<pdfrwt beam="2">0</pdfrwt>
<totfact> 0.39530788E+04</totfact>
</mgrwt>
</event>
<event>
 6    1  0.1273846E-001  0.3000000E+03  0.7818608E-02  0.1093470E+00
         21   -1    0    0  501  502  0.00000000000E+00  0.00000000000E+00  0.12835864011E+01  0.12835864011E+01  0.00000000000E+00 0. -1.
         13   -1    0    0    0    0 -0.00000000000E+00 -0.00000000000E+00 -0.10000000000E+04  0.10000000000E+04  0.00000000000E+00 0.  1.
    9000005    2    1    2  501    0  0.16773455645E+02 -0.28258321432E+02 -0.69507152086E+03  0.69586567201E+03  0.49732109704E+01 0.  0.
         13    1    3    3    0    0  0.15503639060E+02 -0.22619014648E+02 -0.58536560323E+03  0.58600757000E+03  0.00000000000E+00 0.  1.
          1    1    3    3  501    0  0.12698165850E+01 -0.56393067842E+01 -0.10970591763E+03  0.10985810201E+03  0.00000000000E+00 0.  1.
         -3    1    1    2    0  502 -0.16773455645E+02  0.28258321432E+02 -0.30364489274E+03  0.30541791439E+03  0.00000000000E+00 0. -1.
<mgrwt>
<rscale>  1 0.30000000E+03</rscale>
<asrwt>0</asrwt>
<pdfrwt beam="1">  1       21 0.46675968E-02 0.30000000E+03</pdfrwt>
<pdfrwt beam="2">0</pdfrwt>
<totfact> 0.32382958E+04</totfact>
</mgrwt>
</event>
<event>
 6    1  0.1273846E-001  0.3000000E+03  0.7818608E-02  0.1093470E+00
         21   -1    0    0  501  502  0.00000000000E+00  0.00000000000E+00  0.98227083297E+00  0.98227083297E+00  0.00000000000E+00 0. -1.
         13   -1    0    0    0    0 -0.00000000000E+00 -0.00000000000E+00 -0.10000000000E+04  0.10000000000E+04  0.00000000000E+00 0.  1.
    9000005    2    1    2  501    0 -0.31048623246E+02  0.30430784473E+01 -0.50996653484E+03  0.51093701985E+03  0.41826153566E+01 0.  0.
         13    1    3    3    0    0 -0.21124237512E+02  0.38140510336E+01 -0.33383518975E+03  0.33452460943E+03  0.00000000000E+00 0.  1.
          3    1    3    3  501    0 -0.99243857338E+01 -0.77097258624E+00 -0.17613134508E+03  0.17641241042E+03  0.00000000000E+00 0.  1.
         -1    1    1    2    0  502  0.31048623246E+02 -0.30430784473E+01 -0.48905119433E+03  0.49004525098E+03  0.00000000000E+00 0. -1.
<mgrwt>
<rscale>  1 0.30000000E+03</rscale>
<asrwt>0</asrwt>
<pdfrwt beam="1">  1       21 0.35719015E-02 0.30000000E+03</pdfrwt>
<pdfrwt beam="2">0</pdfrwt>
<totfact> 0.50854096E+04</totfact>
</mgrwt>
</event>
<event>
 6    1  0.1273846E-001  0.3000000E+03  0.7818608E-02  0.1093470E+00
         21   -1    0    0  501  502  0.00000000000E+00  0.00000000000E+00  0.28334599760E+01  0.28334599760E+01  0.00000000000E+00 0. -1.
         13   -1    0    0    0    0 -0.00000000000E+00 -0.00000000000E+00 -0.10000000000E+04  0.10000000000E+04  0.00000000000E+00 0.  1.
    9000005    2    1    2  501    0 -0.49943963705E+02 -0.18470053399E+01 -0.67065689338E+03  0.67252094085E+03  0.24364534126E+01 0.  0.
         13    1    3    3    0    0 -0.57678154841E+00 -0.28508165602E+00 -0.79435930103E+01  0.79696059136E+01  0.00000000000E+00 0.  1.
          3    1    3    3  501    0 -0.49367182157E+02 -0.15619236839E+01 -0.66271330036E+03  0.66455133493E+03  0.00000000000E+00 0.  1.
         -1    1    1    2    0  502  0.49943963705E+02  0.18470053399E+01 -0.32650964665E+03  0.33031251913E+03  0.00000000000E+00 0. -1.
<mgrwt>
<rscale>  1 0.30000000E+03</rscale>
<asrwt>0</asrwt>
<pdfrwt beam="1">  1       21 0.10303513E-01 0.30000000E+03</pdfrwt>
<pdfrwt beam="2">0</pdfrwt>
<totfact> 0.81552223E+03</totfact>
</mgrwt>
</event>
<event>
 6    1  0.1273846E-001  0.3000000E+03  0.7818608E-02  0.1093470E+00
         21   -1    0    0  501  502  0.00000000000E+00  0.00000000000E+00  0.17226800015E+01  0.17226800015E+01  0.00000000000E+00 0. -1.
         13   -1    0    0    0    0 -0.00000000000E+00 -0.00000000000E+00 -0.10000000000E+04  0.10000000000E+04  0.00000000000E+00 0.  1.
    9000005    2    1    2  501    0 -0.37290129064E+02 -0.17049483938E+02 -0.57347157642E+03  0.57494269171E+03  0.28655124801E+01 0.  0.
         13    1    3    3    0    0 -0.36649067709E+02 -0.16795348158E+02 -0.56779450412E+03  0.56922388986E+03  0.00000000000E+00 0.  1.
          1    1    3    3  501    0 -0.64106135576E+00 -0.25413578037E+00 -0.56770722994E+01  0.57188018456E+01  0.00000000000E+00 0.  1.
         -1    1    1    2    0  502  0.37290129064E+02  0.17049483938E+02 -0.42480574358E+03  0.42677998830E+03  0.00000000000E+00 0. -1.
<mgrwt>
<rscale>  1 0.30000000E+03</rscale>
<asrwt>0</asrwt>
<pdfrwt beam="1">  1       21 0.62643041E-02 0.30000000E+03</pdfrwt>
<pdfrwt beam="2">0</pdfrwt>
<totfact> 0.19560552E+04</totfact>
</mgrwt>
</event>
<event>
 6    1  0.1273846E-001  0.3000000E+03  0.7818608E-02  0.1093470E+00
         21   -1    0    0  501  502  0.00000000000E+00  0.00000000000E+00  0.11347112595E+01  0.11347112595E+01  0.00000000000E+00 0. -1.
         13   -1    0    0    0    0 -0.00000000000E+00 -0.00000000000E+00 -0.10000000000E+04  0.10000000000E+04  0.00000000000E+00 0.  1.
    9000005    2    1    2  501    0  0.17007667597E+02  0.25843213063E+02 -0.69596554403E+03  0.69665911657E+03  0.29586818518E+01 0.  0.
         13    1    3    3    0    0  0.64200655369E+01  0.11910038182E+02 -0.32301496283E+03  0.32329820981E+03  0.00000000000E+00 0.  1.
          3    1    3    3  501    0  0.10587602061E+02  0.13933174881E+02 -0.37295058120E+03  0.37336090676E+03  0.00000000000E+00 0.  1.
         -3    1    1    2    0  502 -0.17007667597E+02 -0.25843213063E+02 -0.30289974471E+03  0.30447559469E+03  0.00000000000E+00 0. -1.
<mgrwt>
<rscale>  1 0.30000000E+03</rscale>
<asrwt>0</asrwt>
<pdfrwt beam="1">  1       21 0.41262315E-02 0.30000000E+03</pdfrwt>
<pdfrwt beam="2">0</pdfrwt>
<totfact> 0.39902131E+04</totfact>
</mgrwt>
</event>
<event>
 6    1  0.1273846E-001  0.3000000E+03  0.7818608E-02  0.1093470E+00
         21   -1    0    0  501  502  0.00000000000E+00  0.00000000000E+00  0.82069620615E+01  0.82069620615E+01  0.00000000000E+00 0. -1.
         13   -1    0    0    0    0 -0.00000000000E+00 -0.00000000000E+00 -0.10000000000E+04  0.10000000000E+04  0.00000000000E+00 0.  1.
    9000005    2    1    2  501    0 -0.16548998880E+02  0.33347977623E+02 -0.95544604922E+03  0.95617754188E+03  0.35187567205E+01 0.  0.
         13    1    3    3    0    0 -0.16458687399E+02  0.33061344293E+02 -0.93472017267E+03  0.93544948665E+03  0.00000000000E+00 0.  1.
          1    1    3    3  501    0 -0.90311481320E-01  0.28663333077E+00 -0.20725876551E+02  0.20728055231E+02  0.00000000000E+00 0.  1.
         -3    1    1    2    0  502  0.16548998880E+02 -0.33347977623E+02 -0.36346988716E+02  0.52029420179E+02  0.00000000000E+00 0. -1.
<mgrwt>
<rscale>  1 0.30000000E+03</rscale>
<asrwt>0</asrwt>
<pdfrwt beam="1">  1       21 0.29843561E-01 0.30000000E+03</pdfrwt>
<pdfrwt beam="2">0</pdfrwt>
<totfact> 0.10987066E+03</totfact>
</mgrwt>
</event>
<event>
 6    1  0.1273846E-001  0.3000000E+03  0.7818608E-02  0.1093470E+00
         21   -1    0    0  501  502  0.00000000000E+00  0.00000000000E+00  0.11138154788E+01  0.11138154788E+01  0.00000000000E+00 0. -1.
         13   -1    0    0    0    0 -0.00000000000E+00 -0.00000000000E+00 -0.10000000000E+04  0.10000000000E+04  0.00000000000E+00 0.  1.
    9000005    2    1    2  501    0  0.29204328750E+02  0.88469741414E+01 -0.70043325597E+03  0.70110496172E+03  0.32030484251E+01 0.  0.
         13    1    3    3    0    0  0.12459610617E+02  0.38513357504E+01 -0.33606828448E+03  0.33632122519E+03  0.00000000000E+00 0.  1.
          1    1    3    3  501    0  0.16744718133E+02  0.49956383910E+01 -0.36436497149E+03  0.36478373653E+03  0.00000000000E+00 0.  1.
         -3    1    1    2    0  502 -0.29204328750E+02 -0.88469741414E+01 -0.29845292855E+03  0.30000885376E+03  0.00000000000E+00 0. -1.
<mgrwt>
<rscale>  1 0.30000000E+03</rscale>
<asrwt>0</asrwt>
<pdfrwt beam="1">  1       21 0.40502466E-02 0.30000000E+03</pdfrwt>
<pdfrwt beam="2">0</pdfrwt>
<totfact> 0.41172334E+04</totfact>
</mgrwt>
</event>
<event>
 6    1  0.1273846E-001  0.3000000E+03  0.7818608E-02  0.1093470E+00
         21   -1    0    0  501  502  0.00000000000E+00  0.00000000000E+00  0.19521015158E+01  0.19521015158E+01  0.00000000000E+00 0. -1.
         13   -1    0    0    0    0 -0.00000000000E+00 -0.00000000000E+00 -0.10000000000E+04  0.10000000000E+04  0.00000000000E+00 0.  1.
    9000005    2    1    2  501    0 -0.43145425047E+02  0.85137057497E+01 -0.54017946086E+03  0.54197654015E+03  0.32724978267E+01 0.  0.
         13    1    3    3    0    0 -0.28832108766E+02  0.44639910370E+01 -0.34560223044E+03  0.34683154326E+03  0.00000000000E+00 0.  1.
          1    1    3    3  501    0 -0.14313316281E+02  0.40497147127E+01 -0.19457723042E+03  0.19514499689E+03  0.00000000000E+00 0.  1.
         -3    1    1    2    0  502  0.43145425047E+02 -0.85137057497E+01 -0.45786843762E+03  0.45997556137E+03  0.00000000000E+00 0. -1.
<mgrwt>
<rscale>  1 0.30000000E+03</rscale>
<asrwt>0</asrwt>
<pdfrwt beam="1">  1       21 0.70985659E-02 0.30000000E+03</pdfrwt>
<pdfrwt beam="2">0</pdfrwt>
<totfact> 0.15747162E+04</totfact>
</mgrwt>
</event>
<event>
 6    1  0.1273846E-001  0.3000000E+03  0.7818608E-02  0.1093470E+00
         21   -1    0    0  501  502  0.00000000000E+00  0.00000000000E+00  0.17310638109E+01  0.17310638109E+01  0.00000000000E+00 0. -1.
         13   -1    0    0    0    0 -0.00000000000E+00 -0.00000000000E+00 -0.10000000000E+04  0.10000000000E+04  0.00000000000E+00 0.  1.
    9000005    2    1    2  501    0 -0.31890724424E+02 -0.23335883161E+02 -0.34585545509E+03  0.34812190532E+03  0.33590770828E+01 0.  0.
         13    1    3    3    0    0 -0.73170412075E+01 -0.67281544534E+01 -0.78788686303E+02  0.79413249799E+02  0.00000000000E+00 0.  1.
          1    1    3    3  501    0 -0.24573683216E+02 -0.16607728708E+02 -0.26706676879E+03  0.26870865552E+03  0.00000000000E+00 0.  1.
         -1    1    1    2    0  502  0.31890724424E+02  0.23335883161E+02 -0.65241348110E+03  0.65360915849E+03  0.00000000000E+00 0. -1.
<mgrwt>
<rscale>  1 0.30000000E+03</rscale>
<asrwt>0</asrwt>
<pdfrwt beam="1">  1       21 0.62947908E-02 0.30000000E+03</pdfrwt>
<pdfrwt beam="2">0</pdfrwt>
<totfact> 0.19397124E+04</totfact>
</mgrwt>
</event>
<event>
 6    1  0.1273846E-001  0.3000000E+03  0.7818608E-02  0.1093470E+00
         21   -1    0    0  501  502  0.00000000000E+00  0.00000000000E+00  0.13767417256E+01  0.13767417256E+01  0.00000000000E+00 0. -1.
         13   -1    0    0    0    0 -0.00000000000E+00 -0.00000000000E+00 -0.10000000000E+04  0.10000000000E+04  0.00000000000E+00 0.  1.
    9000005    2    1    2  501    0  0.29505573789E+02 -0.10789860686E+02 -0.76178646061E+03  0.76246531733E+03  0.69100351729E+01 0.  0.
         13    1    3    3    0    0  0.24460070936E+02 -0.11574995053E+02 -0.64267523722E+03  0.64324469381E+03  0.00000000000E+00 0.  1.
          1    1    3    3  501    0  0.50455028527E+01  0.78513436669E+00 -0.11911122338E+03  0.11922062351E+03  0.00000000000E+00 0.  1.
         -3    1    1    2    0  502 -0.29505573789E+02  0.10789860686E+02 -0.23683679767E+03  0.23891142440E+03  0.00000000000E+00 0. -1.
<mgrwt>
<rscale>  1 0.30000000E+03</rscale>
<asrwt>0</asrwt>
<pdfrwt beam="1">  1       21 0.50063441E-02 0.30000000E+03</pdfrwt>
<pdfrwt beam="2">0</pdfrwt>
<totfact> 0.28742456E+04</totfact>
</mgrwt>
</event>
<event>
 6    1  0.1273846E-001  0.3000000E+03  0.7818608E-02  0.1093470E+00
         21   -1    0    0  501  502  0.00000000000E+00  0.00000000000E+00  0.17551498145E+01  0.17551498145E+01  0.00000000000E+00 0. -1.
         13   -1    0    0    0    0 -0.00000000000E+00 -0.00000000000E+00 -0.10000000000E+04  0.10000000000E+04  0.00000000000E+00 0.  1.
    9000005    2    1    2  501    0  0.32721845829E+02 -0.61222688482E+01 -0.80281290273E+03  0.80350821426E+03  0.29482577462E+01 0.  0.
         13    1    3    3    0    0  0.15405932071E+02 -0.38148872257E+01 -0.40996904618E+03  0.41027614472E+03  0.00000000000E+00 0.  1.
          3    1    3    3  501    0  0.17315913758E+02 -0.23073816225E+01 -0.39284385656E+03  0.39323206954E+03  0.00000000000E+00 0.  1.
         -1    1    1    2    0  502 -0.32721845829E+02  0.61222688482E+01 -0.19543194745E+03  0.19824693555E+03  0.00000000000E+00 0. -1.
<mgrwt>
<rscale>  1 0.30000000E+03</rscale>
<asrwt>0</asrwt>
<pdfrwt beam="1">  1       21 0.63823764E-02 0.30000000E+03</pdfrwt>
<pdfrwt beam="2">0</pdfrwt>
<totfact> 0.18939196E+04</totfact>
</mgrwt>
</event>
<event>
 6    1  0.1273846E-001  0.3000000E+03  0.7818608E-02  0.1093470E+00
         21   -1    0    0  501  502  0.00000000000E+00  0.00000000000E+00  0.73805361302E+01  0.73805361302E+01  0.00000000000E+00 0. -1.
         13   -1    0    0    0    0 -0.00000000000E+00 -0.00000000000E+00 -0.10000000000E+04  0.10000000000E+04  0.00000000000E+00 0.  1.
    9000005    2    1    2  501    0  0.66473177511E+02 -0.53959609480E+02 -0.47948734687E+03  0.48715472720E+03  0.90160766597E+01 0.  0.
         13    1    3    3    0    0  0.27015410795E+01 -0.11553095275E+01 -0.10003170012E+02  0.10425760145E+02  0.00000000000E+00 0.  1.
          3    1    3    3  501    0  0.63771636431E+02 -0.52804299952E+02 -0.46948417686E+03  0.47672896706E+03  0.00000000000E+00 0.  1.
         -1    1    1    2    0  502 -0.66473177511E+02  0.53959609480E+02 -0.51313211700E+03  0.52022580893E+03  0.00000000000E+00 0. -1.
<mgrwt>
<rscale>  1 0.30000000E+03</rscale>
<asrwt>0</asrwt>
<pdfrwt beam="1">  1       21 0.26838370E-01 0.30000000E+03</pdfrwt>
<pdfrwt beam="2">0</pdfrwt>
<totfact> 0.13564636E+03</totfact>
</mgrwt>
</event>
<event>
 6    1  0.1273846E-001  0.3000000E+03  0.7818608E-02  0.1093470E+00
         21   -1    0    0  501  502  0.00000000000E+00  0.00000000000E+00  0.19473911035E+01  0.19473911035E+01  0.00000000000E+00 0. -1.
         13   -1    0    0    0    0 -0.00000000000E+00 -0.00000000000E+00 -0.10000000000E+04  0.10000000000E+04  0.00000000000E+00 0.  1.
    9000005    2    1    2  501    0 -0.37883153870E+02  0.19080215818E+02 -0.63518994264E+03  0.63661397825E+03  0.34505205935E+01 0.  0.
         13    1    3    3    0    0 -0.17198302194E+02  0.67479052813E+01 -0.27511192176E+03  0.27573154574E+03  0.00000000000E+00 0.  1.
          3    1    3    3  501    0 -0.20684851676E+02  0.12332310537E+02 -0.36007802088E+03  0.36088243251E+03  0.00000000000E+00 0.  1.
         -3    1    1    2    0  502  0.37883153870E+02 -0.19080215818E+02 -0.36286266626E+03  0.36533341285E+03  0.00000000000E+00 0. -1.
<mgrwt>
<rscale>  1 0.30000000E+03</rscale>
<asrwt>0</asrwt>
<pdfrwt beam="1">  1       21 0.70814371E-02 0.30000000E+03</pdfrwt>
<pdfrwt beam="2">0</pdfrwt>
<totfact> 0.15813581E+04</totfact>
</mgrwt>
</event>
<event>
 6    1  0.1273846E-001  0.3000000E+03  0.7818608E-02  0.1093470E+00
         21   -1    0    0  501  502  0.00000000000E+00  0.00000000000E+00  0.20789911187E+01  0.20789911187E+01  0.00000000000E+00 0. -1.
         13   -1    0    0    0    0 -0.00000000000E+00 -0.00000000000E+00 -0.10000000000E+04  0.10000000000E+04  0.00000000000E+00 0.  1.
    9000005    2    1    2  501    0  0.12023237472E+02  0.39136823531E+02 -0.71676495809E+03  0.71795758381E+03  0.59023560481E+01 0.  0.
         13    1    3    3    0    0  0.49392658684E+00  0.67954616514E+01 -0.93778894203E+02  0.94026077555E+02  0.00000000000E+00 0.  1.
          3    1    3    3  501    0  0.11529310885E+02  0.32341361879E+02 -0.62298606389E+03  0.62393150625E+03  0.00000000000E+00 0.  1.
         -3    1    1    2    0  502 -0.12023237472E+02 -0.39136823531E+02 -0.28115605079E+03  0.28412140731E+03  0.00000000000E+00 0. -1.
<mgrwt>
<rscale>  1 0.30000000E+03</rscale>
<asrwt>0</asrwt>
<pdfrwt beam="1">  1       21 0.75599836E-02 0.30000000E+03</pdfrwt>
<pdfrwt beam="2">0</pdfrwt>
<totfact> 0.14106304E+04</totfact>
</mgrwt>
</event>
<event>
 6    1  0.1273846E-001  0.3000000E+03  0.7818608E-02  0.1093470E+00
         21   -1    0    0  501  502  0.00000000000E+00  0.00000000000E+00  0.26111967488E+01  0.26111967488E+01  0.00000000000E+00 0. -1.
         13   -1    0    0    0    0 -0.00000000000E+00 -0.00000000000E+00 -0.10000000000E+04  0.10000000000E+04  0.00000000000E+00 0.  1.
    9000005    2    1    2  501    0  0.24959962923E+02 -0.39693246484E+02 -0.69718678690E+03  0.69876945474E+03  0.32835170428E+01 0.  0.
         13    1    3    3    0    0  0.22082970660E+00 -0.56157452757E+00 -0.15928155804E+02  0.15939582147E+02  0.00000000000E+00 0.  1.
          3    1    3    3  501    0  0.24739133217E+02 -0.39131671956E+02 -0.68125863110E+03  0.68282987260E+03  0.00000000000E+00 0.  1.
         -1    1    1    2    0  502 -0.24959962923E+02  0.39693246484E+02 -0.30020201635E+03  0.30384174200E+03  0.00000000000E+00 0. -1.
<mgrwt>
<rscale>  1 0.30000000E+03</rscale>
<asrwt>0</asrwt>
<pdfrwt beam="1">  1       21 0.94952809E-02 0.30000000E+03</pdfrwt>
<pdfrwt beam="2">0</pdfrwt>
<totfact> 0.94360718E+03</totfact>
</mgrwt>
</event>
<event>
 6    1  0.1273846E-001  0.3000000E+03  0.7818608E-02  0.1093470E+00
         21   -1    0    0  501  502  0.00000000000E+00  0.00000000000E+00  0.12000480130E+01  0.12000480130E+01  0.00000000000E+00 0. -1.
         13   -1    0    0    0    0 -0.00000000000E+00 -0.00000000000E+00 -0.10000000000E+04  0.10000000000E+04  0.00000000000E+00 0.  1.
    9000005    2    1    2  501    0 -0.30293208159E+02  0.16442216935E+02 -0.46255439945E+03  0.46384791247E+03  0.32075680584E+01 0.  0.
         13    1    3    3    0    0 -0.28950139829E+02  0.15915608779E+02 -0.44995914649E+03  0.45117031230E+03  0.00000000000E+00 0.  1.
          3    1    3    3  501    0 -0.13430683298E+01  0.52660815609E+00 -0.12595252966E+02  0.12677600166E+02  0.00000000000E+00 0.  1.
         -3    1    1    2    0  502  0.30293208159E+02 -0.16442216935E+02 -0.53624555254E+03  0.53735213554E+03  0.00000000000E+00 0. -1.
<mgrwt>
<rscale>  1 0.30000000E+03</rscale>
<asrwt>0</asrwt>
<pdfrwt beam="1">  1       21 0.43638202E-02 0.30000000E+03</pdfrwt>
<pdfrwt beam="2">0</pdfrwt>
<totfact> 0.36300436E+04</totfact>
</mgrwt>
</event>
<event>
 6    1  0.1273846E-001  0.3000000E+03  0.7818608E-02  0.1093470E+00
         21   -1    0    0  501  502  0.00000000000E+00  0.00000000000E+00  0.12250079637E+01  0.12250079637E+01  0.00000000000E+00 0. -1.
         13   -1    0    0    0    0 -0.00000000000E+00 -0.00000000000E+00 -0.10000000000E+04  0.10000000000E+04  0.00000000000E+00 0.  1.
    9000005    2    1    2  501    0  0.94494331196E+01 -0.30760865942E+02 -0.69463993084E+03  0.69539227900E+03  0.32039831507E+01 0.  0.
         13    1    3    3    0    0  0.38393907162E+01 -0.17707556567E+02 -0.39865155340E+03  0.39906310217E+03  0.00000000000E+00 0.  1.
          3    1    3    3  501    0  0.56100424034E+01 -0.13053309376E+02 -0.29598837744E+03  0.29632917683E+03  0.00000000000E+00 0.  1.
         -3    1    1    2    0  502 -0.94494331196E+01  0.30760865942E+02 -0.30413506119E+03  0.30583272897E+03  0.00000000000E+00 0. -1.
<mgrwt>
<rscale>  1 0.30000000E+03</rscale>
<asrwt>0</asrwt>
<pdfrwt beam="1">  1       21 0.44545838E-02 0.30000000E+03</pdfrwt>
<pdfrwt beam="2">0</pdfrwt>
<totfact> 0.35056208E+04</totfact>
</mgrwt>
</event>
<event>
 6    1  0.1273846E-001  0.3000000E+03  0.7818608E-02  0.1093470E+00
         21   -1    0    0  501  502  0.00000000000E+00  0.00000000000E+00  0.74645098688E+01  0.74645098688E+01  0.00000000000E+00 0. -1.
         13   -1    0    0    0    0 -0.00000000000E+00 -0.00000000000E+00 -0.10000000000E+04  0.10000000000E+04  0.00000000000E+00 0.  1.
    9000005    2    1    2  501    0  0.43031063971E+02 -0.10056070088E+02 -0.92908630325E+03  0.93014312649E+03  0.34756082777E+01 0.  0.
         13    1    3    3    0    0  0.38686663876E+02 -0.96914429058E+01 -0.85333581701E+03  0.85426728757E+03  0.00000000000E+00 0.  1.
          1    1    3    3  501    0  0.43444000947E+01 -0.36462718180E+00 -0.75750486241E+02  0.75875838914E+02  0.00000000000E+00 0.  1.
         -1    1    1    2    0  502 -0.43031063971E+02  0.10056070088E+02 -0.63449186880E+02  0.77321383380E+02  0.00000000000E+00 0. -1.
<mgrwt>
<rscale>  1 0.30000000E+03</rscale>
<asrwt>0</asrwt>
<pdfrwt beam="1">  1       21 0.27143729E-01 0.30000000E+03</pdfrwt>
<pdfrwt beam="2">0</pdfrwt>
<totfact> 0.13264911E+03</totfact>
</mgrwt>
</event>
<event>
 6    1  0.1273846E-001  0.3000000E+03  0.7818608E-02  0.1093470E+00
         21   -1    0    0  501  502  0.00000000000E+00  0.00000000000E+00  0.12029631551E+01  0.12029631551E+01  0.00000000000E+00 0. -1.
         13   -1    0    0    0    0 -0.00000000000E+00 -0.00000000000E+00 -0.10000000000E+04  0.10000000000E+04  0.00000000000E+00 0.  1.
    9000005    2    1    2  501    0 -0.14449752019E+02 -0.27726061522E+02 -0.71513315915E+03  0.71582124452E+03  0.26625124553E+01 0.  0.
         13    1    3    3    0    0 -0.19300465147E+01 -0.34067617599E+01 -0.11138106380E+03  0.11144986531E+03  0.00000000000E+00 0.  1.
          3    1    3    3  501    0 -0.12519705505E+02 -0.24319299762E+02 -0.60375209535E+03  0.60437137921E+03  0.00000000000E+00 0.  1.
         -1    1    1    2    0  502  0.14449752019E+02  0.27726061522E+02 -0.28366387770E+03  0.28538171864E+03  0.00000000000E+00 0. -1.
<mgrwt>
<rscale>  1 0.30000000E+03</rscale>
<asrwt>0</asrwt>
<pdfrwt beam="1">  1       21 0.43744207E-02 0.30000000E+03</pdfrwt>
<pdfrwt beam="2">0</pdfrwt>
<totfact> 0.36151625E+04</totfact>
</mgrwt>
</event>
<event>
 6    1  0.1273846E-001  0.3000000E+03  0.7818608E-02  0.1093470E+00
         21   -1    0    0  501  502  0.00000000000E+00  0.00000000000E+00  0.22485252917E+01  0.22485252917E+01  0.00000000000E+00 0. -1.
         13   -1    0    0    0    0 -0.00000000000E+00 -0.00000000000E+00 -0.10000000000E+04  0.10000000000E+04  0.00000000000E+00 0.  1.
    9000005    2    1    2  501    0  0.38154198770E+02 -0.35281145832E+01 -0.79355612070E+03  0.79448921003E+03  0.36875045118E+01 0.  0.
         13    1    3    3    0    0  0.34100082573E+02 -0.41643189698E+01 -0.71902676510E+03  0.71984696020E+03  0.00000000000E+00 0.  1.
          1    1    3    3  501    0  0.40541161975E+01  0.63620438661E+00 -0.74529355598E+02  0.74642249832E+02  0.00000000000E+00 0.  1.
         -1    1    1    2    0  502 -0.38154198770E+02  0.35281145832E+01 -0.20419535401E+03  0.20775931526E+03  0.00000000000E+00 0. -1.
<mgrwt>
<rscale>  1 0.30000000E+03</rscale>
<asrwt>0</asrwt>
<pdfrwt beam="1">  1       21 0.81764728E-02 0.30000000E+03</pdfrwt>
<pdfrwt beam="2">0</pdfrwt>
<totfact> 0.12293274E+04</totfact>
</mgrwt>
</event>
<event>
 6    1  0.1273846E-001  0.3000000E+03  0.7818608E-02  0.1093470E+00
         21   -1    0    0  501  502  0.00000000000E+00  0.00000000000E+00  0.70832769227E+01  0.70832769227E+01  0.00000000000E+00 0. -1.
         13   -1    0    0    0    0 -0.00000000000E+00 -0.00000000000E+00 -0.10000000000E+04  0.10000000000E+04  0.00000000000E+00 0.  1.
    9000005    2    1    2  501    0  0.71011355996E+02  0.13073745171E+02 -0.75498670715E+03  0.75843849420E+03  0.32382135218E+01 0.  0.
         13    1    3    3    0    0  0.56140311181E+02  0.92127551202E+01 -0.58664217440E+03  0.58939430790E+03  0.00000000000E+00 0.  1.
          1    1    3    3  501    0  0.14871044815E+02  0.38609900503E+01 -0.16834453275E+03  0.16904418631E+03  0.00000000000E+00 0.  1.
         -1    1    1    2    0  502 -0.71011355996E+02 -0.13073745171E+02 -0.23793001593E+03  0.24864478272E+03  0.00000000000E+00 0. -1.
<mgrwt>
<rscale>  1 0.30000000E+03</rscale>
<asrwt>0</asrwt>
<pdfrwt beam="1">  1       21 0.25757425E-01 0.30000000E+03</pdfrwt>
<pdfrwt beam="2">0</pdfrwt>
<totfact> 0.14708905E+03</totfact>
</mgrwt>
</event>
<event>
 6    1  0.1273846E-001  0.3000000E+03  0.7818608E-02  0.1093470E+00
         21   -1    0    0  501  502  0.00000000000E+00  0.00000000000E+00  0.21316381157E+01  0.21316381157E+01  0.00000000000E+00 0. -1.
         13   -1    0    0    0    0 -0.00000000000E+00 -0.00000000000E+00 -0.10000000000E+04  0.10000000000E+04  0.00000000000E+00 0.  1.
    9000005    2    1    2  501    0  0.21581160101E+02 -0.31726029025E+02 -0.77465063809E+03  0.77564004974E+03  0.78478199903E+01 0.  0.
         13    1    3    3    0    0  0.24053017875E+01 -0.53390786026E+01 -0.18023139895E+03  0.18032650499E+03  0.00000000000E+00 0.  1.
          1    1    3    3  501    0  0.19175858314E+02 -0.26386950422E+02 -0.59441923914E+03  0.59531354474E+03  0.00000000000E+00 0.  1.
         -3    1    1    2    0  502 -0.21581160101E+02  0.31726029025E+02 -0.22321772379E+03  0.22649158838E+03  0.00000000000E+00 0. -1.
<mgrwt>
<rscale>  1 0.30000000E+03</rscale>
<asrwt>0</asrwt>
<pdfrwt beam="1">  1       21 0.77514277E-02 0.30000000E+03</pdfrwt>
<pdfrwt beam="2">0</pdfrwt>
<totfact> 0.13501433E+04</totfact>
</mgrwt>
</event>
<event>
 6    1  0.1273846E-001  0.3000000E+03  0.7818608E-02  0.1093470E+00
         21   -1    0    0  501  502  0.00000000000E+00  0.00000000000E+00  0.29411755096E+01  0.29411755096E+01  0.00000000000E+00 0. -1.
         13   -1    0    0    0    0 -0.00000000000E+00 -0.00000000000E+00 -0.10000000000E+04  0.10000000000E+04  0.00000000000E+00 0.  1.
    9000005    2    1    2  501    0  0.19627557969E+02 -0.50493557102E+02 -0.51458625631E+03  0.51743667564E+03  0.26187364247E+01 0.  0.
         13    1    3    3    0    0  0.26219604717E+01 -0.85960407863E+01 -0.78790023745E+02  0.79300910686E+02  0.00000000000E+00 0.  1.
          3    1    3    3  501    0  0.17005597497E+02 -0.41897516316E+02 -0.43579623256E+03  0.43813576496E+03  0.00000000000E+00 0.  1.
         -3    1    1    2    0  502 -0.19627557969E+02  0.50493557102E+02 -0.48247256818E+03  0.48550449987E+03  0.00000000000E+00 0. -1.
<mgrwt>
<rscale>  1 0.30000000E+03</rscale>
<asrwt>0</asrwt>
<pdfrwt beam="1">  1       21 0.10695206E-01 0.30000000E+03</pdfrwt>
<pdfrwt beam="2">0</pdfrwt>
<totfact> 0.76276261E+03</totfact>
</mgrwt>
</event>
<event>
 6    1  0.1273846E-001  0.3000000E+03  0.7818608E-02  0.1093470E+00
         21   -1    0    0  501  502  0.00000000000E+00  0.00000000000E+00  0.44297348999E+01  0.44297348999E+01  0.00000000000E+00 0. -1.
         13   -1    0    0    0    0 -0.00000000000E+00 -0.00000000000E+00 -0.10000000000E+04  0.10000000000E+04  0.00000000000E+00 0.  1.
    9000005    2    1    2  501    0 -0.53110876709E+02  0.16584535512E+02 -0.22289285850E+03  0.22975161677E+03  0.29609109973E+01 0.  0.
         13    1    3    3    0    0 -0.12310065791E+02  0.38384114127E+01 -0.56978939267E+02  0.58419779544E+02  0.00000000000E+00 0.  1.
          3    1    3    3  501    0 -0.40800810919E+02  0.12746124099E+02 -0.16591391923E+03  0.17133183722E+03  0.00000000000E+00 0.  1.
         -3    1    1    2    0  502  0.53110876709E+02 -0.16584535512E+02 -0.77267740660E+03  0.77467811813E+03  0.00000000000E+00 0. -1.
<mgrwt>
<rscale>  1 0.30000000E+03</rscale>
<asrwt>0</asrwt>
<pdfrwt beam="1">  1       21 0.16108161E-01 0.30000000E+03</pdfrwt>
<pdfrwt beam="2">0</pdfrwt>
<totfact> 0.36070710E+03</totfact>
</mgrwt>
</event>
<event>
 6    1  0.1273846E-001  0.3000000E+03  0.7818608E-02  0.1093470E+00
         21   -1    0    0  501  502  0.00000000000E+00  0.00000000000E+00  0.23479853287E+01  0.23479853287E+01  0.00000000000E+00 0. -1.
         13   -1    0    0    0    0 -0.00000000000E+00 -0.00000000000E+00 -0.10000000000E+04  0.10000000000E+04  0.00000000000E+00 0.  1.
    9000005    2    1    2  501    0 -0.30651258885E+02 -0.17697214377E+02 -0.84092292323E+03  0.84167222745E+03  0.28433374639E+01 0.  0.
         13    1    3    3    0    0 -0.19148171062E+02 -0.97731995946E+01 -0.52930473364E+03  0.52974113389E+03  0.00000000000E+00 0.  1.
          1    1    3    3  501    0 -0.11503087823E+02 -0.79240147826E+01 -0.31161818959E+03  0.31193109355E+03  0.00000000000E+00 0.  1.
         -3    1    1    2    0  502  0.30651258885E+02  0.17697214377E+02 -0.15672909144E+03  0.16067575788E+03  0.00000000000E+00 0. -1.
<mgrwt>
<rscale>  1 0.30000000E+03</rscale>
<asrwt>0</asrwt>
<pdfrwt beam="1">  1       21 0.85381465E-02 0.30000000E+03</pdfrwt>
<pdfrwt beam="2">0</pdfrwt>
<totfact> 0.11390948E+04</totfact>
</mgrwt>
</event>
<event>
 6    1  0.1273846E-001  0.3000000E+03  0.7818608E-02  0.1093470E+00
         21   -1    0    0  501  502  0.00000000000E+00  0.00000000000E+00  0.53598186021E+01  0.53598186021E+01  0.00000000000E+00 0. -1.
         13   -1    0    0    0    0 -0.00000000000E+00 -0.00000000000E+00 -0.10000000000E+04  0.10000000000E+04  0.00000000000E+00 0.  1.
    9000005    2    1    2  501    0 -0.49672602907E+02  0.47845847797E+02 -0.66335922770E+03  0.66697591988E+03  0.74040593460E+01 0.  0.
         13    1    3    3    0    0 -0.34954142120E+02  0.38014298229E+02 -0.50132459607E+03  0.50397740976E+03  0.00000000000E+00 0.  1.
          1    1    3    3  501    0 -0.14718460787E+02  0.98315495680E+01 -0.16203463163E+03  0.16299851012E+03  0.00000000000E+00 0.  1.
         -3    1    1    2    0  502  0.49672602907E+02 -0.47845847797E+02 -0.33128095370E+03  0.33838389872E+03  0.00000000000E+00 0. -1.
<mgrwt>
<rscale>  1 0.30000000E+03</rscale>
<asrwt>0</asrwt>
<pdfrwt beam="1">  1       21 0.19490291E-01 0.30000000E+03</pdfrwt>
<pdfrwt beam="2">0</pdfrwt>
<totfact> 0.25201882E+03</totfact>
</mgrwt>
</event>
<event>
 6    1  0.1273846E-001  0.3000000E+03  0.7818608E-02  0.1093470E+00
         21   -1    0    0  501  502  0.00000000000E+00  0.00000000000E+00  0.15051131987E+01  0.15051131987E+01  0.00000000000E+00 0. -1.
         13   -1    0    0    0    0 -0.00000000000E+00 -0.00000000000E+00 -0.10000000000E+04  0.10000000000E+04  0.00000000000E+00 0.  1.
    9000005    2    1    2  501    0 -0.92753940923E+01 -0.29089634117E+02 -0.80763744715E+03  0.80822086133E+03  0.32364962791E+01 0.  0.
         13    1    3    3    0    0 -0.55151443851E+01 -0.12797247156E+02 -0.34476901953E+03  0.34505052265E+03  0.00000000000E+00 0.  1.
          1    1    3    3  501    0 -0.37602497072E+01 -0.16292386961E+02 -0.46286842762E+03  0.46317033869E+03  0.00000000000E+00 0.  1.
         -1    1    1    2    0  502  0.92753940923E+01  0.29089634117E+02 -0.19085743965E+03  0.19328425187E+03  0.00000000000E+00 0. -1.
<mgrwt>
<rscale>  1 0.30000000E+03</rscale>
<asrwt>0</asrwt>
<pdfrwt beam="1">  1       21 0.54731504E-02 0.30000000E+03</pdfrwt>
<pdfrwt beam="2">0</pdfrwt>
<totfact> 0.24680341E+04</totfact>
</mgrwt>
</event>
<event>
 6    1  0.1273846E-001  0.3000000E+03  0.7818608E-02  0.1093470E+00
         21   -1    0    0  501  502  0.00000000000E+00  0.00000000000E+00  0.31932778904E+01  0.31932778904E+01  0.00000000000E+00 0. -1.
         13   -1    0    0    0    0 -0.00000000000E+00 -0.00000000000E+00 -0.10000000000E+04  0.10000000000E+04  0.00000000000E+00 0.  1.
    9000005    2    1    2  501    0  0.40367232165E+02 -0.39386622252E+02 -0.47298528786E+03  0.47634442440E+03  0.28475743566E+01 0.  0.
         13    1    3    3    0    0  0.10003887834E+02 -0.11517704962E+02 -0.12669725530E+03  0.12761242025E+03  0.00000000000E+00 0.  1.
          3    1    3    3  501    0  0.30363344331E+02 -0.27868917290E+02 -0.34628803255E+03  0.34873200415E+03  0.00000000000E+00 0.  1.
         -3    1    1    2    0  502 -0.40367232165E+02  0.39386622252E+02 -0.52382143425E+03  0.52684885349E+03  0.00000000000E+00 0. -1.
<mgrwt>
<rscale>  1 0.30000000E+03</rscale>
<asrwt>0</asrwt>
<pdfrwt beam="1">  1       21 0.11611944E-01 0.30000000E+03</pdfrwt>
<pdfrwt beam="2">0</pdfrwt>
<totfact> 0.65773745E+03</totfact>
</mgrwt>
</event>
<event>
 6    1  0.1273846E-001  0.3000000E+03  0.7818608E-02  0.1093470E+00
         21   -1    0    0  501  502  0.00000000000E+00  0.00000000000E+00  0.37987159208E+01  0.37987159208E+01  0.00000000000E+00 0. -1.
         13   -1    0    0    0    0 -0.00000000000E+00 -0.00000000000E+00 -0.10000000000E+04  0.10000000000E+04  0.00000000000E+00 0.  1.
    9000005    2    1    2  501    0 -0.22158315372E+02  0.55219332716E+02 -0.62805407538E+03  0.63087441674E+03  0.32314782136E+01 0.  0.
         13    1    3    3    0    0 -0.18469866572E+02  0.45669288229E+02 -0.53224281118E+03  0.53451775454E+03  0.00000000000E+00 0.  1.
          3    1    3    3  501    0 -0.36884487996E+01  0.95500444862E+01 -0.95811264197E+02  0.96356662205E+02  0.00000000000E+00 0.  1.
         -1    1    1    2    0  502  0.22158315372E+02 -0.55219332716E+02 -0.36814720870E+03  0.37292429918E+03  0.00000000000E+00 0. -1.
<mgrwt>
<rscale>  1 0.30000000E+03</rscale>
<asrwt>0</asrwt>
<pdfrwt beam="1">  1       21 0.13813542E-01 0.30000000E+03</pdfrwt>
<pdfrwt beam="2">0</pdfrwt>
<totfact> 0.47932442E+03</totfact>
</mgrwt>
</event>
<event>
 6    1  0.1273846E-001  0.3000000E+03  0.7818608E-02  0.1093470E+00
         21   -1    0    0  501  502  0.00000000000E+00  0.00000000000E+00  0.87705367649E+01  0.87705367649E+01  0.00000000000E+00 0. -1.
         13   -1    0    0    0    0 -0.00000000000E+00 -0.00000000000E+00 -0.10000000000E+04  0.10000000000E+04  0.00000000000E+00 0.  1.
    9000005    2    1    2  501    0  0.47083381490E+02  0.13973987891E+02 -0.92504758518E+03  0.92635598627E+03  0.32033272902E+01 0.  0.
         13    1    3    3    0    0  0.27095038629E+02  0.72150036990E+01 -0.55348005003E+03  0.55418982595E+03  0.00000000000E+00 0.  1.
          3    1    3    3  501    0  0.19988342861E+02  0.67589841916E+01 -0.37156753514E+03  0.37216616032E+03  0.00000000000E+00 0.  1.
         -3    1    1    2    0  502 -0.47083381490E+02 -0.13973987891E+02 -0.66181878059E+02  0.82414550496E+02  0.00000000000E+00 0. -1.
<mgrwt>
<rscale>  1 0.30000000E+03</rscale>
<asrwt>0</asrwt>
<pdfrwt beam="1">  1       21 0.31892928E-01 0.30000000E+03</pdfrwt>
<pdfrwt beam="2">0</pdfrwt>
<totfact> 0.96145734E+02</totfact>
</mgrwt>
</event>
<event>
 6    1  0.1273846E-001  0.3000000E+03  0.7818608E-02  0.1093470E+00
         21   -1    0    0  501  502  0.00000000000E+00  0.00000000000E+00  0.24016663192E+01  0.24016663192E+01  0.00000000000E+00 0. -1.
         13   -1    0    0    0    0 -0.00000000000E+00 -0.00000000000E+00 -0.10000000000E+04  0.10000000000E+04  0.00000000000E+00 0.  1.
    9000005    2    1    2  501    0  0.43821157322E+01 -0.38966182524E+02 -0.79883742056E+03  0.79980979358E+03  0.41127955303E+01 0.  0.
         13    1    3    3    0    0  0.20613891917E+01 -0.60755209595E+01 -0.14375276503E+03  0.14389586073E+03  0.00000000000E+00 0.  1.
          1    1    3    3  501    0  0.23207265405E+01 -0.32890661565E+02 -0.65508465553E+03  0.65591393285E+03  0.00000000000E+00 0.  1.
         -1    1    1    2    0  502 -0.43821157322E+01  0.38966182524E+02 -0.19876091312E+03  0.20259187274E+03  0.00000000000E+00 0. -1.
<mgrwt>
<rscale>  1 0.30000000E+03</rscale>
<asrwt>0</asrwt>
<pdfrwt beam="1">  1       21 0.87333505E-02 0.30000000E+03</pdfrwt>
<pdfrwt beam="2">0</pdfrwt>
<totfact> 0.10945297E+04</totfact>
</mgrwt>
</event>
<event>
 6    1  0.1273846E-001  0.3000000E+03  0.7818608E-02  0.1093470E+00
         21   -1    0    0  501  502  0.00000000000E+00  0.00000000000E+00  0.10765603963E+01  0.10765603963E+01  0.00000000000E+00 0. -1.
         13   -1    0    0    0    0 -0.00000000000E+00 -0.00000000000E+00 -0.10000000000E+04  0.10000000000E+04  0.00000000000E+00 0.  1.
    9000005    2    1    2  501    0 -0.20188945984E+02  0.23810342964E+02 -0.64971049626E+03  0.65047107589E+03  0.37902029005E+01 0.  0.
         13    1    3    3    0    0 -0.11256826927E+02  0.11221625671E+02 -0.35752681540E+03  0.35787995859E+03  0.00000000000E+00 0.  1.
          1    1    3    3  501    0 -0.89321190568E+01  0.12588717293E+02 -0.29218368087E+03  0.29259111730E+03  0.00000000000E+00 0.  1.
         -3    1    1    2    0  502  0.20188945984E+02 -0.23810342964E+02 -0.34921294334E+03  0.35060548451E+03  0.00000000000E+00 0. -1.
<mgrwt>
<rscale>  1 0.30000000E+03</rscale>
<asrwt>0</asrwt>
<pdfrwt beam="1">  1       21 0.39147733E-02 0.30000000E+03</pdfrwt>
<pdfrwt beam="2">0</pdfrwt>
<totfact> 0.43599493E+04</totfact>
</mgrwt>
</event>
<event>
 6    1  0.1273846E-001  0.3000000E+03  0.7818608E-02  0.1093470E+00
         21   -1    0    0  501  502  0.00000000000E+00  0.00000000000E+00  0.22020025186E+01  0.22020025186E+01  0.00000000000E+00 0. -1.
         13   -1    0    0    0    0 -0.00000000000E+00 -0.00000000000E+00 -0.10000000000E+04  0.10000000000E+04  0.00000000000E+00 0.  1.
    9000005    2    1    2  501    0 -0.37513731253E+02  0.27428836838E+02 -0.56381265212E+03  0.56573562224E+03  0.35307875893E+01 0.  0.
         13    1    3    3    0    0 -0.47332408819E+01  0.38021394986E+01 -0.60682130395E+02  0.60985086564E+02  0.00000000000E+00 0.  1.
          1    1    3    3  501    0 -0.32780490371E+02  0.23626697339E+02 -0.50313052172E+03  0.50475053568E+03  0.00000000000E+00 0.  1.
         -3    1    1    2    0  502  0.37513731253E+02 -0.27428836838E+02 -0.43398534536E+03  0.43646638028E+03  0.00000000000E+00 0. -1.
<mgrwt>
<rscale>  1 0.30000000E+03</rscale>
<asrwt>0</asrwt>
<pdfrwt beam="1">  1       21 0.80072988E-02 0.30000000E+03</pdfrwt>
<pdfrwt beam="2">0</pdfrwt>
<totfact> 0.12753424E+04</totfact>
</mgrwt>
</event>
<event>
 6    1  0.1273846E-001  0.3000000E+03  0.7818608E-02  0.1093470E+00
         21   -1    0    0  501  502  0.00000000000E+00  0.00000000000E+00  0.20639641242E+01  0.20639641242E+01  0.00000000000E+00 0. -1.
         13   -1    0    0    0    0 -0.00000000000E+00 -0.00000000000E+00 -0.10000000000E+04  0.10000000000E+04  0.00000000000E+00 0.  1.
    9000005    2    1    2  501    0 -0.42646881459E+02 -0.14880466242E+02 -0.45269438276E+03  0.45495461028E+03  0.33628048850E+01 0.  0.
         13    1    3    3    0    0 -0.20349341743E+02 -0.72464166948E+01 -0.19972768243E+03  0.20089239258E+03  0.00000000000E+00 0.  1.
          3    1    3    3  501    0 -0.22297539716E+02 -0.76340495476E+01 -0.25296670033E+03  0.25406221770E+03  0.00000000000E+00 0.  1.
         -1    1    1    2    0  502  0.42646881459E+02  0.14880466242E+02 -0.54524165312E+03  0.54710935385E+03  0.00000000000E+00 0. -1.
<mgrwt>
<rscale>  1 0.30000000E+03</rscale>
<asrwt>0</asrwt>
<pdfrwt beam="1">  1       21 0.75053399E-02 0.30000000E+03</pdfrwt>
<pdfrwt beam="2">0</pdfrwt>
<totfact> 0.14286648E+04</totfact>
</mgrwt>
</event>
<event>
 6    1  0.1273846E-001  0.3000000E+03  0.7818608E-02  0.1093470E+00
         21   -1    0    0  501  502  0.00000000000E+00  0.00000000000E+00  0.13364798143E+01  0.13364798143E+01  0.00000000000E+00 0. -1.
         13   -1    0    0    0    0 -0.00000000000E+00 -0.00000000000E+00 -0.10000000000E+04  0.10000000000E+04  0.00000000000E+00 0.  1.
    9000005    2    1    2  501    0 -0.25311836419E+02  0.17608247619E+02 -0.76724709626E+03  0.76787491829E+03  0.36116438306E+01 0.  0.
         13    1    3    3    0    0 -0.71538492550E+01  0.70120847271E+01 -0.25335938089E+03  0.25355733627E+03  0.00000000000E+00 0.  1.
          3    1    3    3  501    0 -0.18157987164E+02  0.10596162892E+02 -0.51388771537E+03  0.51431758202E+03  0.00000000000E+00 0.  1.
         -3    1    1    2    0  502  0.25311836419E+02 -0.17608247619E+02 -0.23141642392E+03  0.23346156152E+03  0.00000000000E+00 0. -1.
<mgrwt>
<rscale>  1 0.30000000E+03</rscale>
<asrwt>0</asrwt>
<pdfrwt beam="1">  1       21 0.48599368E-02 0.30000000E+03</pdfrwt>
<pdfrwt beam="2">0</pdfrwt>
<totfact> 0.30233179E+04</totfact>
</mgrwt>
</event>
<event>
 6    1  0.1273846E-001  0.3000000E+03  0.7818608E-02  0.1093470E+00
         21   -1    0    0  501  502  0.00000000000E+00  0.00000000000E+00  0.22873069417E+01  0.22873069417E+01  0.00000000000E+00 0. -1.
         13   -1    0    0    0    0 -0.00000000000E+00 -0.00000000000E+00 -0.10000000000E+04  0.10000000000E+04  0.00000000000E+00 0.  1.
    9000005    2    1    2  501    0  0.13647278440E+02 -0.40933041408E+02 -0.71411451358E+03  0.71542551184E+03  0.35160194761E+01 0.  0.
         13    1    3    3    0    0  0.68150068850E+01 -0.15194476608E+02 -0.28164042663E+03  0.28213232064E+03  0.00000000000E+00 0.  1.
          3    1    3    3  501    0  0.68322715553E+01 -0.25738564799E+02 -0.43247408695E+03  0.43329319120E+03  0.00000000000E+00 0.  1.
         -3    1    1    2    0  502 -0.13647278440E+02  0.40933041408E+02 -0.28359817947E+03  0.28686179510E+03  0.00000000000E+00 0. -1.
<mgrwt>
<rscale>  1 0.30000000E+03</rscale>
<asrwt>0</asrwt>
<pdfrwt beam="1">  1       21 0.83174973E-02 0.30000000E+03</pdfrwt>
<pdfrwt beam="2">0</pdfrwt>
<totfact> 0.11928856E+04</totfact>
</mgrwt>
</event>
<event>
 6    1  0.1273846E-001  0.3000000E+03  0.7818608E-02  0.1093470E+00
         21   -1    0    0  501  502  0.00000000000E+00  0.00000000000E+00  0.10567772766E+01  0.10567772766E+01  0.00000000000E+00 0. -1.
         13   -1    0    0    0    0 -0.00000000000E+00 -0.00000000000E+00 -0.10000000000E+04  0.10000000000E+04  0.00000000000E+00 0.  1.
    9000005    2    1    2  501    0 -0.16607130292E+02  0.27718526419E+02 -0.54157093923E+03  0.54254448824E+03  0.33654160314E+01 0.  0.
         13    1    3    3    0    0 -0.46503818315E+01  0.10648392396E+02 -0.18341968914E+03  0.18378736811E+03  0.00000000000E+00 0.  1.
          3    1    3    3  501    0 -0.11956748461E+02  0.17070134023E+02 -0.35815125009E+03  0.35875712014E+03  0.00000000000E+00 0.  1.
         -3    1    1    2    0  502  0.16607130292E+02 -0.27718526419E+02 -0.45737228350E+03  0.45851228903E+03  0.00000000000E+00 0. -1.
<mgrwt>
<rscale>  1 0.30000000E+03</rscale>
<asrwt>0</asrwt>
<pdfrwt beam="1">  1       21 0.38428346E-02 0.30000000E+03</pdfrwt>
<pdfrwt beam="2">0</pdfrwt>
<totfact> 0.44980734E+04</totfact>
</mgrwt>
</event>
<event>
 6    1  0.1273846E-001  0.3000000E+03  0.7818608E-02  0.1093470E+00
         21   -1    0    0  501  502  0.00000000000E+00  0.00000000000E+00  0.20471239882E+01  0.20471239882E+01  0.00000000000E+00 0. -1.
         13   -1    0    0    0    0 -0.00000000000E+00 -0.00000000000E+00 -0.10000000000E+04  0.10000000000E+04  0.00000000000E+00 0.  1.
    9000005    2    1    2  501    0  0.18909577621E+02 -0.25322602374E+02 -0.85743125898E+03  0.85801542202E+03  0.18150047674E+01 0.  0.
         13    1    3    3    0    0  0.54064745297E+01 -0.79782669863E+01 -0.28097401803E+03  0.28113925645E+03  0.00000000000E+00 0.  1.
          3    1    3    3  501    0  0.13503103091E+02 -0.17344335388E+02 -0.57645724095E+03  0.57687616558E+03  0.00000000000E+00 0.  1.
         -3    1    1    2    0  502 -0.18909577621E+02  0.25322602374E+02 -0.14052161703E+03  0.14403170196E+03  0.00000000000E+00 0. -1.
<mgrwt>
<rscale>  1 0.30000000E+03</rscale>
<asrwt>0</asrwt>
<pdfrwt beam="1">  1       21 0.74441029E-02 0.30000000E+03</pdfrwt>
<pdfrwt beam="2">0</pdfrwt>
<totfact> 0.14493024E+04</totfact>
</mgrwt>
</event>
<event>
 6    1  0.1273846E-001  0.3000000E+03  0.7818608E-02  0.1093470E+00
         21   -1    0    0  501  502  0.00000000000E+00  0.00000000000E+00  0.22352947561E+02  0.22352947561E+02  0.00000000000E+00 0. -1.
         13   -1    0    0    0    0 -0.00000000000E+00 -0.00000000000E+00 -0.10000000000E+04  0.10000000000E+04  0.00000000000E+00 0.  1.
    9000005    2    1    2  501    0  0.19283486214E+02 -0.30941458659E+02 -0.98456374596E+03  0.98524408940E+03  0.33044134532E+01 0.  0.
         13    1    3    3    0    0  0.53871428586E+01 -0.11564017620E+02 -0.33503536754E+03  0.33527816111E+03  0.00000000000E+00 0.  1.
          3    1    3    3  501    0  0.13896343355E+02 -0.19377441039E+02 -0.64952837842E+03  0.64996592830E+03  0.00000000000E+00 0.  1.
         -1    1    1    2    0  502 -0.19283486214E+02  0.30941458659E+02  0.69166935175E+01  0.37108858157E+02  0.00000000000E+00 0. -1.
<mgrwt>
<rscale>  1 0.30000000E+03</rscale>
<asrwt>0</asrwt>
<pdfrwt beam="1">  1       21 0.81283617E-01 0.30000000E+03</pdfrwt>
<pdfrwt beam="2">0</pdfrwt>
<totfact> 0.12385185E+02</totfact>
</mgrwt>
</event>
<event>
 6    1  0.1273846E-001  0.3000000E+03  0.7818608E-02  0.1093470E+00
         21   -1    0    0  501  502  0.00000000000E+00  0.00000000000E+00  0.10040505737E+01  0.10040505737E+01  0.00000000000E+00 0. -1.
         13   -1    0    0    0    0 -0.00000000000E+00 -0.00000000000E+00 -0.10000000000E+04  0.10000000000E+04  0.00000000000E+00 0.  1.
    9000005    2    1    2  501    0 -0.68891879871E+01 -0.30371381460E+02 -0.45658066506E+03  0.45769546199E+03  0.70249903704E+01 0.  0.
         13    1    3    3    0    0 -0.56776445901E+01 -0.26688281341E+02 -0.42548855694E+03  0.42636253599E+03  0.00000000000E+00 0.  1.
          3    1    3    3  501    0 -0.12115433970E+01 -0.36831001192E+01 -0.31092108119E+02  0.31332925991E+02  0.00000000000E+00 0.  1.
         -3    1    1    2    0  502  0.68891879871E+01  0.30371381460E+02 -0.54241528436E+03  0.54330858859E+03  0.00000000000E+00 0. -1.
<mgrwt>
<rscale>  1 0.30000000E+03</rscale>
<asrwt>0</asrwt>
<pdfrwt beam="1">  1       21 0.36511007E-02 0.30000000E+03</pdfrwt>
<pdfrwt beam="2">0</pdfrwt>
<totfact> 0.49017649E+04</totfact>
</mgrwt>
</event>
<event>
 6    1  0.1273846E-001  0.3000000E+03  0.7818608E-02  0.1093470E+00
         21   -1    0    0  501  502  0.00000000000E+00  0.00000000000E+00  0.38587617031E+01  0.38587617031E+01  0.00000000000E+00 0. -1.
         13   -1    0    0    0    0 -0.00000000000E+00 -0.00000000000E+00 -0.10000000000E+04  0.10000000000E+04  0.00000000000E+00 0.  1.
    9000005    2    1    2  501    0  0.36704170184E+00 -0.33459147988E+02 -0.92057299216E+03  0.92121368243E+03  0.77695238063E+01 0.  0.
         13    1    3    3    0    0 -0.33610941211E+01 -0.23067485461E+02 -0.62571140857E+03  0.62614548841E+03  0.00000000000E+00 0.  1.
          1    1    3    3  501    0  0.37281358229E+01 -0.10391662527E+02 -0.29486158358E+03  0.29506819402E+03  0.00000000000E+00 0.  1.
         -3    1    1    2    0  502 -0.36704170184E+00  0.33459147988E+02 -0.75568246140E+02  0.82645079275E+02  0.00000000000E+00 0. -1.
<mgrwt>
<rscale>  1 0.30000000E+03</rscale>
<asrwt>0</asrwt>
<pdfrwt beam="1">  1       21 0.14031890E-01 0.30000000E+03</pdfrwt>
<pdfrwt beam="2">0</pdfrwt>
<totfact> 0.46571649E+03</totfact>
</mgrwt>
</event>
<event>
 6    1  0.1273846E-001  0.3000000E+03  0.7818608E-02  0.1093470E+00
         21   -1    0    0  501  502  0.00000000000E+00  0.00000000000E+00  0.25429671197E+01  0.25429671197E+01  0.00000000000E+00 0. -1.
         13   -1    0    0    0    0 -0.00000000000E+00 -0.00000000000E+00 -0.10000000000E+04  0.10000000000E+04  0.00000000000E+00 0.  1.
    9000005    2    1    2  501    0  0.12852977326E+01  0.49177857046E+02 -0.60477408984E+03  0.60679050993E+03  0.47863963550E+01 0.  0.
         13    1    3    3    0    0  0.35198444334E+00  0.44808148168E+02 -0.56205257807E+03  0.56383596422E+03  0.00000000000E+00 0.  1.
          3    1    3    3  501    0  0.93331328927E+00  0.43697088780E+01 -0.42721511767E+02  0.42954545708E+02  0.00000000000E+00 0.  1.
         -1    1    1    2    0  502 -0.12852977326E+01 -0.49177857046E+02 -0.39268294304E+03  0.39575245719E+03  0.00000000000E+00 0. -1.
<mgrwt>
<rscale>  1 0.30000000E+03</rscale>
<asrwt>0</asrwt>
<pdfrwt beam="1">  1       21 0.92471727E-02 0.30000000E+03</pdfrwt>
<pdfrwt beam="2">0</pdfrwt>
<totfact> 0.98910995E+03</totfact>
</mgrwt>
</event>
<event>
 6    1  0.1273846E-001  0.3000000E+03  0.7818608E-02  0.1093470E+00
         21   -1    0    0  501  502  0.00000000000E+00  0.00000000000E+00  0.47876944416E+01  0.47876944416E+01  0.00000000000E+00 0. -1.
         13   -1    0    0    0    0 -0.00000000000E+00 -0.00000000000E+00 -0.10000000000E+04  0.10000000000E+04  0.00000000000E+00 0.  1.
    9000005    2    1    2  501    0 -0.10939190028E+02  0.49025427520E+02 -0.84300253794E+03  0.84450365973E+03  0.31613159338E+01 0.  0.
         13    1    3    3    0    0 -0.44084688688E+01  0.17829016941E+02 -0.33315162735E+03  0.33365748193E+03  0.00000000000E+00 0.  1.
          3    1    3    3  501    0 -0.65307211597E+01  0.31196410579E+02 -0.50985091059E+03  0.51084617781E+03  0.00000000000E+00 0.  1.
         -1    1    1    2    0  502  0.10939190028E+02 -0.49025427520E+02 -0.15220976762E+03  0.16028403471E+03  0.00000000000E+00 0. -1.
<mgrwt>
<rscale>  1 0.30000000E+03</rscale>
<asrwt>0</asrwt>
<pdfrwt beam="1">  1       21 0.17409835E-01 0.30000000E+03</pdfrwt>
<pdfrwt beam="2">0</pdfrwt>
<totfact> 0.31190488E+03</totfact>
</mgrwt>
</event>
<event>
 6    1  0.1273846E-001  0.3000000E+03  0.7818608E-02  0.1093470E+00
         21   -1    0    0  501  502  0.00000000000E+00  0.00000000000E+00  0.10242915249E+01  0.10242915249E+01  0.00000000000E+00 0. -1.
         13   -1    0    0    0    0 -0.00000000000E+00 -0.00000000000E+00 -0.10000000000E+04  0.10000000000E+04  0.00000000000E+00 0.  1.
    9000005    2    1    2  501    0  0.77004348003E+01 -0.29491884322E+02 -0.35282435186E+03  0.35415441003E+03  0.33548378944E+01 0.  0.
         13    1    3    3    0    0  0.66613389972E+01 -0.28132673841E+02 -0.32832992317E+03  0.32960030222E+03  0.00000000000E+00 0.  1.
          3    1    3    3  501    0  0.10390958031E+01 -0.13592104809E+01 -0.24494428692E+02  0.24554107807E+02  0.00000000000E+00 0.  1.
         -3    1    1    2    0  502 -0.77004348003E+01  0.29491884322E+02 -0.64615135661E+03  0.64686988150E+03  0.00000000000E+00 0. -1.
<mgrwt>
<rscale>  1 0.30000000E+03</rscale>
<asrwt>0</asrwt>
<pdfrwt beam="1">  1       21 0.37247043E-02 0.30000000E+03</pdfrwt>
<pdfrwt beam="2">0</pdfrwt>
<totfact> 0.47402937E+04</totfact>
</mgrwt>
</event>
<event>
 6    1  0.1273846E-001  0.3000000E+03  0.7818608E-02  0.1093470E+00
         21   -1    0    0  501  502  0.00000000000E+00  0.00000000000E+00  0.24003205396E+01  0.24003205396E+01  0.00000000000E+00 0. -1.
         13   -1    0    0    0    0 -0.00000000000E+00 -0.00000000000E+00 -0.10000000000E+04  0.10000000000E+04  0.00000000000E+00 0.  1.
    9000005    2    1    2  501    0 -0.92277450339E+01 -0.45131040400E+02 -0.66752373596E+03  0.66912552317E+03  0.43664170166E+01 0.  0.
         13    1    3    3    0    0 -0.51714504532E+01 -0.30819819420E+02 -0.42670769552E+03  0.42785051429E+03  0.00000000000E+00 0.  1.
          1    1    3    3  501    0 -0.40562945808E+01 -0.14311220980E+02 -0.24081604044E+03  0.24127500887E+03  0.00000000000E+00 0.  1.
         -1    1    1    2    0  502  0.92277450339E+01  0.45131040400E+02 -0.33007594350E+03  0.33327479737E+03  0.00000000000E+00 0. -1.
<mgrwt>
<rscale>  1 0.30000000E+03</rscale>
<asrwt>0</asrwt>
<pdfrwt beam="1">  1       21 0.87284567E-02 0.30000000E+03</pdfrwt>
<pdfrwt beam="2">0</pdfrwt>
<totfact> 0.10956143E+04</totfact>
</mgrwt>
</event>
<event>
 6    1  0.1273846E-001  0.3000000E+03  0.7818608E-02  0.1093470E+00
         21   -1    0    0  501  502  0.00000000000E+00  0.00000000000E+00  0.18835516618E+01  0.18835516618E+01  0.00000000000E+00 0. -1.
         13   -1    0    0    0    0 -0.00000000000E+00 -0.00000000000E+00 -0.10000000000E+04  0.10000000000E+04  0.00000000000E+00 0.  1.
    9000005    2    1    2  501    0  0.90429412747E+01 -0.30599609740E+02 -0.83813600712E+03  0.83875215532E+03  0.38859624204E+01 0.  0.
         13    1    3    3    0    0  0.26901375157E+01 -0.91874866266E+01 -0.30044148535E+03  0.30059396679E+03  0.00000000000E+00 0.  1.
          3    1    3    3  501    0  0.63528037590E+01 -0.21412123113E+02 -0.53769452177E+03  0.53815818852E+03  0.00000000000E+00 0.  1.
         -3    1    1    2    0  502 -0.90429412747E+01  0.30599609740E+02 -0.15998044121E+03  0.16313139635E+03  0.00000000000E+00 0. -1.
<mgrwt>
<rscale>  1 0.30000000E+03</rscale>
<asrwt>0</asrwt>
<pdfrwt beam="1">  1       21 0.68492932E-02 0.30000000E+03</pdfrwt>
<pdfrwt beam="2">0</pdfrwt>
<totfact> 0.16757636E+04</totfact>
</mgrwt>
</event>
<event>
 6    1  0.1273846E-001  0.3000000E+03  0.7818608E-02  0.1093470E+00
         21   -1    0    0  501  502  0.00000000000E+00  0.00000000000E+00  0.15857318095E+01  0.15857318095E+01  0.00000000000E+00 0. -1.
         13   -1    0    0    0    0 -0.00000000000E+00 -0.00000000000E+00 -0.10000000000E+04  0.10000000000E+04  0.00000000000E+00 0.  1.
    9000005    2    1    2  501    0  0.12443447104E+02  0.34754472117E+02 -0.68536100490E+03  0.68636349534E+03  0.35253354224E+01 0.  0.
         13    1    3    3    0    0  0.11797031789E+02  0.30593861689E+02 -0.59158049245E+03  0.59248850907E+03  0.00000000000E+00 0.  1.
          3    1    3    3  501    0  0.64641531555E+00  0.41606104280E+01 -0.93780512451E+02  0.93874986271E+02  0.00000000000E+00 0.  1.
         -1    1    1    2    0  502 -0.12443447104E+02 -0.34754472117E+02 -0.31305326329E+03  0.31522223647E+03  0.00000000000E+00 0. -1.
<mgrwt>
<rscale>  1 0.30000000E+03</rscale>
<asrwt>0</asrwt>
<pdfrwt beam="1">  1       21 0.57663096E-02 0.30000000E+03</pdfrwt>
<pdfrwt beam="2">0</pdfrwt>
<totfact> 0.22564765E+04</totfact>
</mgrwt>
</event>
<event>
 6    1  0.1273846E-001  0.3000000E+03  0.7818608E-02  0.1093470E+00
         21   -1    0    0  501  502  0.00000000000E+00  0.00000000000E+00  0.64790684993E+01  0.64790684993E+01  0.00000000000E+00 0. -1.
         13   -1    0    0    0    0 -0.00000000000E+00 -0.00000000000E+00 -0.10000000000E+04  0.10000000000E+04  0.00000000000E+00 0.  1.
    9000005    2    1    2  501    0  0.37880972361E+01 -0.31210977810E+02 -0.96000465519E+03  0.96052457368E+03  0.31692010420E+01 0.  0.
         13    1    3    3    0    0 -0.75028595739E-01 -0.24333576133E+01 -0.54167450565E+02  0.54222131637E+02  0.00000000000E+00 0.  1.
          3    1    3    3  501    0  0.38631258319E+01 -0.28777620196E+02 -0.90583720463E+03  0.90630244204E+03  0.00000000000E+00 0.  1.
         -3    1    1    2    0  502 -0.37880972361E+01  0.31210977810E+02 -0.33516276307E+02  0.45954494818E+02  0.00000000000E+00 0. -1.
<mgrwt>
<rscale>  1 0.30000000E+03</rscale>
<asrwt>0</asrwt>
<pdfrwt beam="1">  1       21 0.23560299E-01 0.30000000E+03</pdfrwt>
<pdfrwt beam="2">0</pdfrwt>
<totfact> 0.17506919E+03</totfact>
</mgrwt>
</event>
<event>
 6    1  0.1273846E-001  0.3000000E+03  0.7818608E-02  0.1093470E+00
         21   -1    0    0  501  502  0.00000000000E+00  0.00000000000E+00  0.56031924970E+01  0.56031924970E+01  0.00000000000E+00 0. -1.
         13   -1    0    0    0    0 -0.00000000000E+00 -0.00000000000E+00 -0.10000000000E+04  0.10000000000E+04  0.00000000000E+00 0.  1.
    9000005    2    1    2  501    0  0.36568499381E+02 -0.23707925701E+02 -0.90595147366E+03  0.90700350707E+03  0.28228211210E+01 0.  0.
         13    1    3    3    0    0  0.18225695507E+02 -0.11612534618E+02 -0.47833624115E+03  0.47882417079E+03  0.00000000000E+00 0.  1.
          1    1    3    3  501    0  0.18342803873E+02 -0.12095391083E+02 -0.42761523252E+03  0.42817933628E+03  0.00000000000E+00 0.  1.
         -1    1    1    2    0  502 -0.36568499381E+02  0.23707925701E+02 -0.88445333839E+02  0.98599685425E+02  0.00000000000E+00 0. -1.
<mgrwt>
<rscale>  1 0.30000000E+03</rscale>
<asrwt>0</asrwt>
<pdfrwt beam="1">  1       21 0.20375288E-01 0.30000000E+03</pdfrwt>
<pdfrwt beam="2">0</pdfrwt>
<totfact> 0.23154970E+03</totfact>
</mgrwt>
</event>
<event>
 6    1  0.1273846E-001  0.3000000E+03  0.7818608E-02  0.1093470E+00
         21   -1    0    0  501  502  0.00000000000E+00  0.00000000000E+00  0.17203037292E+01  0.17203037292E+01  0.00000000000E+00 0. -1.
         13   -1    0    0    0    0 -0.00000000000E+00 -0.00000000000E+00 -0.10000000000E+04  0.10000000000E+04  0.00000000000E+00 0.  1.
    9000005    2    1    2  501    0  0.34951234892E+02 -0.96529625643E+01 -0.74166633729E+03  0.74255783632E+03  0.29010175590E+01 0.  0.
         13    1    3    3    0    0  0.15303628385E+01 -0.38855580480E+00 -0.22185046178E+02  0.22241161389E+02  0.00000000000E+00 0.  1.
          1    1    3    3  501    0  0.33420872054E+02 -0.92644067595E+01 -0.71948129111E+03  0.72031667493E+03  0.00000000000E+00 0.  1.
         -3    1    1    2    0  502 -0.34951234892E+02  0.96529625643E+01 -0.25661335898E+03  0.25916246741E+03  0.00000000000E+00 0. -1.
<mgrwt>
<rscale>  1 0.30000000E+03</rscale>
<asrwt>0</asrwt>
<pdfrwt beam="1">  1       21 0.62556631E-02 0.30000000E+03</pdfrwt>
<pdfrwt beam="2">0</pdfrwt>
<totfact> 0.19607261E+04</totfact>
</mgrwt>
</event>
<event>
 6    1  0.1273846E-001  0.3000000E+03  0.7818608E-02  0.1093470E+00
         21   -1    0    0  501  502  0.00000000000E+00  0.00000000000E+00  0.65193380021E+01  0.65193380021E+01  0.00000000000E+00 0. -1.
         13   -1    0    0    0    0 -0.00000000000E+00 -0.00000000000E+00 -0.10000000000E+04  0.10000000000E+04  0.00000000000E+00 0.  1.
    9000005    2    1    2  501    0 -0.31221196970E+02 -0.19277016638E+02 -0.94500538757E+03  0.94572280240E+03  0.31733147530E+01 0.  0.
         13    1    3    3    0    0 -0.10260434410E+02 -0.51778830171E+01 -0.26815510807E+03  0.26840128347E+03  0.00000000000E+00 0.  1.
          1    1    3    3  501    0 -0.20960762561E+02 -0.14099133621E+02 -0.67685027950E+03  0.67732151892E+03  0.00000000000E+00 0.  1.
         -3    1    1    2    0  502  0.31221196970E+02  0.19277016638E+02 -0.48475274429E+02  0.60796535606E+02  0.00000000000E+00 0. -1.
<mgrwt>
<rscale>  1 0.30000000E+03</rscale>
<asrwt>0</asrwt>
<pdfrwt beam="1">  1       21 0.23706734E-01 0.30000000E+03</pdfrwt>
<pdfrwt beam="2">0</pdfrwt>
<totfact> 0.17297578E+03</totfact>
</mgrwt>
</event>
<event>
 6    1  0.1273846E-001  0.3000000E+03  0.7818608E-02  0.1093470E+00
         21   -1    0    0  501  502  0.00000000000E+00  0.00000000000E+00  0.28850939514E+01  0.28850939514E+01  0.00000000000E+00 0. -1.
         13   -1    0    0    0    0 -0.00000000000E+00 -0.00000000000E+00 -0.10000000000E+04  0.10000000000E+04  0.00000000000E+00 0.  1.
    9000005    2    1    2  501    0 -0.37623575132E+02  0.49658459394E+01 -0.85315269519E+03  0.85400490323E+03  0.38288918602E+01 0.  0.
         13    1    3    3    0    0 -0.26694353303E+02  0.40674173869E+01 -0.64206926864E+03  0.64263681666E+03  0.00000000000E+00 0.  1.
          3    1    3    3  501    0 -0.10929221829E+02  0.89842855245E+00 -0.21108342654E+03  0.21136808658E+03  0.00000000000E+00 0.  1.
         -3    1    1    2    0  502  0.37623575132E+02 -0.49658459394E+01 -0.14396221086E+03  0.14888019072E+03  0.00000000000E+00 0. -1.
<mgrwt>
<rscale>  1 0.30000000E+03</rscale>
<asrwt>0</asrwt>
<pdfrwt beam="1">  1       21 0.10491273E-01 0.30000000E+03</pdfrwt>
<pdfrwt beam="2">0</pdfrwt>
<totfact> 0.78956282E+03</totfact>
</mgrwt>
</event>
<event>
 6    1  0.1273846E-001  0.3000000E+03  0.7818608E-02  0.1093470E+00
         21   -1    0    0  501  502  0.00000000000E+00  0.00000000000E+00  0.26607381281E+01  0.26607381281E+01  0.00000000000E+00 0. -1.
         13   -1    0    0    0    0 -0.00000000000E+00 -0.00000000000E+00 -0.10000000000E+04  0.10000000000E+04  0.00000000000E+00 0.  1.
    9000005    2    1    2  501    0 -0.18143085549E+02  0.46418304214E+02 -0.62676349771E+03  0.62874867962E+03  0.29307905328E+01 0.  0.
         13    1    3    3    0    0 -0.12637967571E+02  0.33783042458E+02 -0.43796204653E+03  0.43944483884E+03  0.00000000000E+00 0.  1.
          3    1    3    3  501    0 -0.55051179781E+01  0.12635261756E+02 -0.18880145118E+03  0.18930384077E+03  0.00000000000E+00 0.  1.
         -3    1    1    2    0  502  0.18143085549E+02 -0.46418304214E+02 -0.37057576416E+03  0.37391205851E+03  0.00000000000E+00 0. -1.
<mgrwt>
<rscale>  1 0.30000000E+03</rscale>
<asrwt>0</asrwt>
<pdfrwt beam="1">  1       21 0.96754318E-02 0.30000000E+03</pdfrwt>
<pdfrwt beam="2">0</pdfrwt>
<totfact> 0.91251619E+03</totfact>
</mgrwt>
</event>
<event>
 6    1  0.1273846E-001  0.3000000E+03  0.7818608E-02  0.1093470E+00
         21   -1    0    0  501  502  0.00000000000E+00  0.00000000000E+00  0.12603001314E+01  0.12603001314E+01  0.00000000000E+00 0. -1.
         13   -1    0    0    0    0 -0.00000000000E+00 -0.00000000000E+00 -0.10000000000E+04  0.10000000000E+04  0.00000000000E+00 0.  1.
    9000005    2    1    2  501    0 -0.28539012211E+02  0.20948818019E+02 -0.48363940191E+03  0.48494484892E+03  0.33327507313E+01 0.  0.
         13    1    3    3    0    0 -0.12118815100E+02  0.96429668957E+01 -0.19068357403E+03  0.19131146828E+03  0.00000000000E+00 0.  1.
          3    1    3    3  501    0 -0.16420197111E+02  0.11305851124E+02 -0.29295582788E+03  0.29363338065E+03  0.00000000000E+00 0.  1.
         -3    1    1    2    0  502  0.28539012211E+02 -0.20948818019E+02 -0.51510029796E+03  0.51631545121E+03  0.00000000000E+00 0. -1.
<mgrwt>
<rscale>  1 0.30000000E+03</rscale>
<asrwt>0</asrwt>
<pdfrwt beam="1">  1       21 0.45829192E-02 0.30000000E+03</pdfrwt>
<pdfrwt beam="2">0</pdfrwt>
<totfact> 0.33406245E+04</totfact>
</mgrwt>
</event>
<event>
 6    1  0.1273846E-001  0.3000000E+03  0.7818608E-02  0.1093470E+00
         21   -1    0    0  501  502  0.00000000000E+00  0.00000000000E+00  0.10663515569E+01  0.10663515569E+01  0.00000000000E+00 0. -1.
         13   -1    0    0    0    0 -0.00000000000E+00 -0.00000000000E+00 -0.10000000000E+04  0.10000000000E+04  0.00000000000E+00 0.  1.
    9000005    2    1    2  501    0  0.29966064949E+02 -0.74444813322E+01 -0.66021018701E+03  0.66093848049E+03  0.29662452109E+01 0.  0.
         13    1    3    3    0    0  0.12920881395E+01 -0.98956223247E+00 -0.34917276168E+02  0.34955184168E+02  0.00000000000E+00 0.  1.
          1    1    3    3  501    0  0.28673976810E+02 -0.64549190998E+01 -0.62529291084E+03  0.62598329632E+03  0.00000000000E+00 0.  1.
         -3    1    1    2    0  502 -0.29966064949E+02  0.74444813322E+01 -0.33872346144E+03  0.34012787107E+03  0.00000000000E+00 0. -1.
<mgrwt>
<rscale>  1 0.30000000E+03</rscale>
<asrwt>0</asrwt>
<pdfrwt beam="1">  1       21 0.38776502E-02 0.30000000E+03</pdfrwt>
<pdfrwt beam="2">0</pdfrwt>
<totfact> 0.44303825E+04</totfact>
</mgrwt>
</event>
<event>
 6    1  0.1273846E-001  0.3000000E+03  0.7818608E-02  0.1093470E+00
         21   -1    0    0  501  502  0.00000000000E+00  0.00000000000E+00  0.97095537015E+00  0.97095537015E+00  0.00000000000E+00 0. -1.
         13   -1    0    0    0    0 -0.00000000000E+00 -0.00000000000E+00 -0.10000000000E+04  0.10000000000E+04  0.00000000000E+00 0.  1.
    9000005    2    1    2  501    0  0.29920198200E+02  0.79813966896E+01 -0.47250555056E+03  0.47353763185E+03  0.41800135584E+01 0.  0.
         13    1    3    3    0    0  0.76679495600E+01  0.35932886131E+01 -0.14585213929E+03  0.14609776080E+03  0.00000000000E+00 0.  1.
          3    1    3    3  501    0  0.22252248640E+02  0.43881080766E+01 -0.32665341127E+03  0.32743987105E+03  0.00000000000E+00 0.  1.
         -1    1    1    2    0  502 -0.29920198200E+02 -0.79813966896E+01 -0.52652349407E+03  0.52743332352E+03  0.00000000000E+00 0. -1.
<mgrwt>
<rscale>  1 0.30000000E+03</rscale>
<asrwt>0</asrwt>
<pdfrwt beam="1">  1       21 0.35307542E-02 0.30000000E+03</pdfrwt>
<pdfrwt beam="2">0</pdfrwt>
<totfact> 0.51851389E+04</totfact>
</mgrwt>
</event>
<event>
 6    1  0.1273846E-001  0.3000000E+03  0.7818608E-02  0.1093470E+00
         21   -1    0    0  501  502  0.00000000000E+00  0.00000000000E+00  0.92693470141E+01  0.92693470141E+01  0.00000000000E+00 0. -1.
         13   -1    0    0    0    0 -0.00000000000E+00 -0.00000000000E+00 -0.10000000000E+04  0.10000000000E+04  0.00000000000E+00 0.  1.
    9000005    2    1    2  501    0  0.18997295506E+02  0.75766170707E+02 -0.79029270120E+03  0.79414895659E+03  0.29328863916E+01 0.  0.
         13    1    3    3    0    0  0.22836484844E+01  0.12676931561E+02 -0.13706445966E+03  0.13766839051E+03  0.00000000000E+00 0.  1.
          3    1    3    3  501    0  0.16713647021E+02  0.63089239146E+02 -0.65322824154E+03  0.65648056608E+03  0.00000000000E+00 0.  1.
         -3    1    1    2    0  502 -0.18997295506E+02 -0.75766170707E+02 -0.20043795179E+03  0.21512039042E+03  0.00000000000E+00 0. -1.
<mgrwt>
<rscale>  1 0.30000000E+03</rscale>
<asrwt>0</asrwt>
<pdfrwt beam="1">  1       21 0.33706787E-01 0.30000000E+03</pdfrwt>
<pdfrwt beam="2">0</pdfrwt>
<totfact> 0.85935602E+02</totfact>
</mgrwt>
</event>
<event>
 6    1  0.1273846E-001  0.3000000E+03  0.7818608E-02  0.1093470E+00
         21   -1    0    0  501  502  0.00000000000E+00  0.00000000000E+00  0.12142490839E+01  0.12142490839E+01  0.00000000000E+00 0. -1.
         13   -1    0    0    0    0 -0.00000000000E+00 -0.00000000000E+00 -0.10000000000E+04  0.10000000000E+04  0.00000000000E+00 0.  1.
    9000005    2    1    2  501    0 -0.13454375359E+02  0.32058242999E+02 -0.50386648943E+03  0.50507533049E+03  0.33013832734E+01 0.  0.
         13    1    3    3    0    0 -0.98081717708E+01  0.26388818908E+02 -0.39797253699E+03  0.39896705402E+03  0.00000000000E+00 0.  1.
          1    1    3    3  501    0 -0.36462035881E+01  0.56694240907E+01 -0.10589395244E+03  0.10610827646E+03  0.00000000000E+00 0.  1.
         -1    1    1    2    0  502  0.13454375359E+02 -0.32058242999E+02 -0.49491926148E+03  0.49613891860E+03  0.00000000000E+00 0. -1.
<mgrwt>
<rscale>  1 0.30000000E+03</rscale>
<asrwt>0</asrwt>
<pdfrwt beam="1">  1       21 0.44154605E-02 0.30000000E+03</pdfrwt>
<pdfrwt beam="2">0</pdfrwt>
<totfact> 0.35584314E+04</totfact>
</mgrwt>
</event>
<event>
 6    1  0.1273846E-001  0.3000000E+03  0.7818608E-02  0.1093470E+00
         21   -1    0    0  501  502  0.00000000000E+00  0.00000000000E+00  0.18236070075E+01  0.18236070075E+01  0.00000000000E+00 0. -1.
         13   -1    0    0    0    0 -0.00000000000E+00 -0.00000000000E+00 -0.10000000000E+04  0.10000000000E+04  0.00000000000E+00 0.  1.
    9000005    2    1    2  501    0 -0.35100355235E+02  0.56767290698E+01 -0.22626072484E+03  0.22908946196E+03  0.48791170581E+01 0.  0.
         13    1    3    3    0    0 -0.26193114298E+02  0.62951214285E+01 -0.16639928478E+03  0.16856580248E+03  0.00000000000E+00 0.  1.
          3    1    3    3  501    0 -0.89072409370E+01 -0.61839235870E+00 -0.59861440064E+02  0.60523659479E+02  0.00000000000E+00 0.  1.
         -3    1    1    2    0  502  0.35100355235E+02 -0.56767290698E+01 -0.77191566815E+03  0.77273414505E+03  0.00000000000E+00 0. -1.
<mgrwt>
<rscale>  1 0.30000000E+03</rscale>
<asrwt>0</asrwt>
<pdfrwt beam="1">  1       21 0.66313122E-02 0.30000000E+03</pdfrwt>
<pdfrwt beam="2">0</pdfrwt>
<totfact> 0.17725110E+04</totfact>
</mgrwt>
</event>
<event>
 6    1  0.1273846E-001  0.3000000E+03  0.7818608E-02  0.1093470E+00
         21   -1    0    0  501  502  0.00000000000E+00  0.00000000000E+00  0.43577823131E+01  0.43577823131E+01  0.00000000000E+00 0. -1.
         13   -1    0    0    0    0 -0.00000000000E+00 -0.00000000000E+00 -0.10000000000E+04  0.10000000000E+04  0.00000000000E+00 0.  1.
    9000005    2    1    2  501    0  0.19817864554E+02 -0.62063556663E+02 -0.41944938389E+03  0.42449330285E+03  0.34850681027E+01 0.  0.
         13    1    3    3    0    0  0.27256097203E+01 -0.97293619849E+01 -0.57551789254E+02  0.58431993628E+02  0.00000000000E+00 0.  1.
          3    1    3    3  501    0  0.17092254834E+02 -0.52334194678E+02 -0.36189759463E+03  0.36606130922E+03  0.00000000000E+00 0.  1.
         -1    1    1    2    0  502 -0.19817864554E+02  0.62063556663E+02 -0.57619283380E+03  0.57986447946E+03  0.00000000000E+00 0. -1.
<mgrwt>
<rscale>  1 0.30000000E+03</rscale>
<asrwt>0</asrwt>
<pdfrwt beam="1">  1       21 0.15846515E-01 0.30000000E+03</pdfrwt>
<pdfrwt beam="2">0</pdfrwt>
<totfact> 0.37188603E+03</totfact>
</mgrwt>
</event>
<event>
 6    1  0.1273846E-001  0.3000000E+03  0.7818608E-02  0.1093470E+00
         21   -1    0    0  501  502  0.00000000000E+00  0.00000000000E+00  0.45701681336E+01  0.45701681336E+01  0.00000000000E+00 0. -1.
         13   -1    0    0    0    0 -0.00000000000E+00 -0.00000000000E+00 -0.10000000000E+04  0.10000000000E+04  0.00000000000E+00 0.  1.
    9000005    2    1    2  501    0 -0.11362984550E+02 -0.32511602550E+02 -0.92988238793E+03  0.93052566040E+03  0.32599956439E+01 0.  0.
         13    1    3    3    0    0 -0.78764362720E+01 -0.17814204919E+02 -0.53532517370E+03  0.53567940575E+03  0.00000000000E+00 0.  1.
          1    1    3    3  501    0 -0.34865482779E+01 -0.14697397631E+02 -0.39455721423E+03  0.39484625465E+03  0.00000000000E+00 0.  1.
         -1    1    1    2    0  502  0.11362984550E+02  0.32511602550E+02 -0.65547443941E+02  0.74044507733E+02  0.00000000000E+00 0. -1.
<mgrwt>
<rscale>  1 0.30000000E+03</rscale>
<asrwt>0</asrwt>
<pdfrwt beam="1">  1       21 0.16618828E-01 0.30000000E+03</pdfrwt>
<pdfrwt beam="2">0</pdfrwt>
<totfact> 0.34028905E+03</totfact>
</mgrwt>
</event>
<event>
 6    1  0.1273846E-001  0.3000000E+03  0.7818608E-02  0.1093470E+00
         21   -1    0    0  501  502  0.00000000000E+00  0.00000000000E+00  0.88032992522E+01  0.88032992522E+01  0.00000000000E+00 0. -1.
         13   -1    0    0    0    0 -0.00000000000E+00 -0.00000000000E+00 -0.10000000000E+04  0.10000000000E+04  0.00000000000E+00 0.  1.
    9000005    2    1    2  501    0 -0.17342178181E+02  0.82358078024E+02 -0.71828601035E+03  0.72320944587E+03  0.36750186214E+01 0.  0.
         13    1    3    3    0    0 -0.13610624833E+02  0.61140713585E+02 -0.54650217953E+03  0.55008005617E+03  0.00000000000E+00 0.  1.
          3    1    3    3  501    0 -0.37315533480E+01  0.21217364439E+02 -0.17178383082E+03  0.17312938969E+03  0.00000000000E+00 0.  1.
         -3    1    1    2    0  502  0.17342178181E+02 -0.82358078024E+02 -0.27291069039E+03  0.28559385339E+03  0.00000000000E+00 0. -1.
<mgrwt>
<rscale>  1 0.30000000E+03</rscale>
<asrwt>0</asrwt>
<pdfrwt beam="1">  1       21 0.32012065E-01 0.30000000E+03</pdfrwt>
<pdfrwt beam="2">0</pdfrwt>
<totfact> 0.95424009E+02</totfact>
</mgrwt>
</event>
<event>
 6    1  0.1273846E-001  0.3000000E+03  0.7818608E-02  0.1093470E+00
         21   -1    0    0  501  502  0.00000000000E+00  0.00000000000E+00  0.92824603533E+00  0.92824603533E+00  0.00000000000E+00 0. -1.
         13   -1    0    0    0    0 -0.00000000000E+00 -0.00000000000E+00 -0.10000000000E+04  0.10000000000E+04  0.00000000000E+00 0.  1.
    9000005    2    1    2  501    0  0.26288399750E+02 -0.14687498975E+02 -0.56498728647E+03  0.56580053202E+03  0.35784870158E+01 0.  0.
         13    1    3    3    0    0  0.17901516250E+02 -0.11304858615E+02 -0.41708237737E+03  0.41761941241E+03  0.00000000000E+00 0.  1.
          1    1    3    3  501    0  0.83868834999E+01 -0.33826403608E+01 -0.14790490910E+03  0.14818111960E+03  0.00000000000E+00 0.  1.
         -1    1    1    2    0  502 -0.26288399750E+02  0.14687498975E+02 -0.43408446749E+03  0.43512771402E+03  0.00000000000E+00 0. -1.
<mgrwt>
<rscale>  1 0.30000000E+03</rscale>
<asrwt>0</asrwt>
<pdfrwt beam="1">  1       21 0.33754472E-02 0.30000000E+03</pdfrwt>
<pdfrwt beam="2">0</pdfrwt>
<totfact> 0.55903861E+04</totfact>
</mgrwt>
</event>
<event>
 6    1  0.1273846E-001  0.3000000E+03  0.7818608E-02  0.1093470E+00
         21   -1    0    0  501  502  0.00000000000E+00  0.00000000000E+00  0.29082858987E+01  0.29082858987E+01  0.00000000000E+00 0. -1.
         13   -1    0    0    0    0 -0.00000000000E+00 -0.00000000000E+00 -0.10000000000E+04  0.10000000000E+04  0.00000000000E+00 0.  1.
    9000005    2    1    2  501    0 -0.48585024216E+02 -0.10372765233E+02 -0.69290284554E+03  0.69468926216E+03  0.32739531011E+01 0.  0.
         13    1    3    3    0    0 -0.38794696712E+02 -0.69799250330E+01 -0.55383520346E+03  0.55523614836E+03  0.00000000000E+00 0.  1.
          1    1    3    3  501    0 -0.97903275039E+01 -0.33928401998E+01 -0.13906764208E+03  0.13945311381E+03  0.00000000000E+00 0.  1.
         -1    1    1    2    0  502  0.48585024216E+02  0.10372765233E+02 -0.30418886856E+03  0.30821902374E+03  0.00000000000E+00 0. -1.
<mgrwt>
<rscale>  1 0.30000000E+03</rscale>
<asrwt>0</asrwt>
<pdfrwt beam="1">  1       21 0.10575607E-01 0.30000000E+03</pdfrwt>
<pdfrwt beam="2">0</pdfrwt>
<totfact> 0.77830939E+03</totfact>
</mgrwt>
</event>
<event>
 6    1  0.1273846E-001  0.3000000E+03  0.7818608E-02  0.1093470E+00
         21   -1    0    0  501  502  0.00000000000E+00  0.00000000000E+00  0.25897276711E+01  0.25897276711E+01  0.00000000000E+00 0. -1.
         13   -1    0    0    0    0 -0.00000000000E+00 -0.00000000000E+00 -0.10000000000E+04  0.10000000000E+04  0.00000000000E+00 0.  1.
    9000005    2    1    2  501    0  0.35512677450E+02 -0.16488405725E+01 -0.85721929431E+03  0.85796130981E+03  0.29701279018E+01 0.  0.
         13    1    3    3    0    0  0.35273427219E+02 -0.18818703393E+01 -0.85138360350E+03  0.85211606980E+03  0.00000000000E+00 0.  1.
          3    1    3    3  501    0  0.23925023138E+00  0.23302976684E+00 -0.58356908126E+01  0.58452400127E+01  0.00000000000E+00 0.  1.
         -1    1    1    2    0  502 -0.35512677450E+02  0.16488405725E+01 -0.14019097802E+03  0.14462841786E+03  0.00000000000E+00 0. -1.
<mgrwt>
<rscale>  1 0.30000000E+03</rscale>
<asrwt>0</asrwt>
<pdfrwt beam="1">  1       21 0.94172114E-02 0.30000000E+03</pdfrwt>
<pdfrwt beam="2">0</pdfrwt>
<totfact> 0.95757998E+03</totfact>
</mgrwt>
</event>
<event>
 6    1  0.1273846E-001  0.3000000E+03  0.7818608E-02  0.1093470E+00
         21   -1    0    0  501  502  0.00000000000E+00  0.00000000000E+00  0.33097741221E+01  0.33097741221E+01  0.00000000000E+00 0. -1.
         13   -1    0    0    0    0 -0.00000000000E+00 -0.00000000000E+00 -0.10000000000E+04  0.10000000000E+04  0.00000000000E+00 0.  1.
    9000005    2    1    2  501    0  0.31476113278E+02  0.16848122297E+02 -0.89165870919E+03  0.89237635071E+03  0.23859382890E+01 0.  0.
         13    1    3    3    0    0  0.60451928122E+01  0.22179588690E+01 -0.15603142555E+03  0.15616423873E+03  0.00000000000E+00 0.  1.
          3    1    3    3  501    0  0.25430920466E+02  0.14630163428E+02 -0.73562728364E+03  0.73621211198E+03  0.00000000000E+00 0.  1.
         -1    1    1    2    0  502 -0.31476113278E+02 -0.16848122297E+02 -0.10503151669E+03  0.11093342341E+03  0.00000000000E+00 0. -1.
<mgrwt>
<rscale>  1 0.30000000E+03</rscale>
<asrwt>0</asrwt>
<pdfrwt beam="1">  1       21 0.12035568E-01 0.30000000E+03</pdfrwt>
<pdfrwt beam="2">0</pdfrwt>
<totfact> 0.61639161E+03</totfact>
</mgrwt>
</event>
<event>
 6    1  0.1273846E-001  0.3000000E+03  0.7818608E-02  0.1093470E+00
         21   -1    0    0  501  502  0.00000000000E+00  0.00000000000E+00  0.23876088923E+01  0.23876088923E+01  0.00000000000E+00 0. -1.
         13   -1    0    0    0    0 -0.00000000000E+00 -0.00000000000E+00 -0.10000000000E+04  0.10000000000E+04  0.00000000000E+00 0.  1.
    9000005    2    1    2  501    0  0.34129692510E+02  0.33032708628E+02 -0.60029256168E+03  0.60223883331E+03  0.91900477830E+01 0.  0.
         13    1    3    3    0    0  0.65030600432E+01  0.23262855949E+01 -0.69917256628E+02  0.70257555956E+02  0.00000000000E+00 0.  1.
          3    1    3    3  501    0  0.27626632467E+02  0.30706423033E+02 -0.53037530506E+03  0.53198127735E+03  0.00000000000E+00 0.  1.
         -1    1    1    2    0  502 -0.34129692510E+02 -0.33032708628E+02 -0.39731982942E+03  0.40014877559E+03  0.00000000000E+00 0. -1.
<mgrwt>
<rscale>  1 0.30000000E+03</rscale>
<asrwt>0</asrwt>
<pdfrwt beam="1">  1       21 0.86822325E-02 0.30000000E+03</pdfrwt>
<pdfrwt beam="2">0</pdfrwt>
<totfact> 0.11059401E+04</totfact>
</mgrwt>
</event>
<event>
 6    1  0.1273846E-001  0.3000000E+03  0.7818608E-02  0.1093470E+00
         21   -1    0    0  501  502  0.00000000000E+00  0.00000000000E+00  0.13664770498E+01  0.13664770498E+01  0.00000000000E+00 0. -1.
         13   -1    0    0    0    0 -0.00000000000E+00 -0.00000000000E+00 -0.10000000000E+04  0.10000000000E+04  0.00000000000E+00 0.  1.
    9000005    2    1    2  501    0  0.36583886916E+02 -0.35155527425E+01 -0.54710104002E+03  0.54834073492E+03  0.26969772908E+01 0.  0.
         13    1    3    3    0    0  0.86096876148E+01 -0.19646776860E+01 -0.13416451433E+03  0.13445483846E+03  0.00000000000E+00 0.  1.
          3    1    3    3  501    0  0.27974199301E+02 -0.15508750565E+01 -0.41293652569E+03  0.41388589646E+03  0.00000000000E+00 0.  1.
         -1    1    1    2    0  502 -0.36583886916E+02  0.35155527425E+01 -0.45153248293E+03  0.45302574213E+03  0.00000000000E+00 0. -1.
<mgrwt>
<rscale>  1 0.30000000E+03</rscale>
<asrwt>0</asrwt>
<pdfrwt beam="1">  1       21 0.49690179E-02 0.30000000E+03</pdfrwt>
<pdfrwt beam="2">0</pdfrwt>
<totfact> 0.29111446E+04</totfact>
</mgrwt>
</event>
<event>
 6    1  0.1273846E-001  0.3000000E+03  0.7818608E-02  0.1093470E+00
         21   -1    0    0  501  502  0.00000000000E+00  0.00000000000E+00  0.13566362874E+01  0.13566362874E+01  0.00000000000E+00 0. -1.
         13   -1    0    0    0    0 -0.00000000000E+00 -0.00000000000E+00 -0.10000000000E+04  0.10000000000E+04  0.00000000000E+00 0.  1.
    9000005    2    1    2  501    0 -0.52802552681E+01  0.32312393058E+02 -0.72730876641E+03  0.72805380876E+03  0.35121094920E+01 0.  0.
         13    1    3    3    0    0 -0.13267880313E+01  0.14914142137E+02 -0.30193401123E+03  0.30230504319E+03  0.00000000000E+00 0.  1.
          3    1    3    3  501    0 -0.39534672368E+01  0.17398250921E+02 -0.42537475518E+03  0.42574876557E+03  0.00000000000E+00 0.  1.
         -3    1    1    2    0  502  0.52802552681E+01 -0.32312393058E+02 -0.27133459730E+03  0.27330282753E+03  0.00000000000E+00 0. -1.
<mgrwt>
<rscale>  1 0.30000000E+03</rscale>
<asrwt>0</asrwt>
<pdfrwt beam="1">  1       21 0.49332333E-02 0.30000000E+03</pdfrwt>
<pdfrwt beam="2">0</pdfrwt>
<totfact> 0.29472178E+04</totfact>
</mgrwt>
</event>
<event>
 6    1  0.1273846E-001  0.3000000E+03  0.7818608E-02  0.1093470E+00
         21   -1    0    0  501  502  0.00000000000E+00  0.00000000000E+00  0.10658758427E+02  0.10658758427E+02  0.00000000000E+00 0. -1.
         13   -1    0    0    0    0 -0.00000000000E+00 -0.00000000000E+00 -0.10000000000E+04  0.10000000000E+04  0.00000000000E+00 0.  1.
    9000005    2    1    2  501    0  0.73106143772E+02 -0.49654423311E+02 -0.75578302241E+03  0.76093989300E+03  0.33872975028E+01 0.  0.
         13    1    3    3    0    0  0.59887025566E+02 -0.42133793679E+02 -0.62213337681E+03  0.62642769012E+03  0.00000000000E+00 0.  1.
          1    1    3    3  501    0  0.13219118206E+02 -0.75206296319E+01 -0.13364964560E+03  0.13451220288E+03  0.00000000000E+00 0.  1.
         -3    1    1    2    0  502 -0.73106143772E+02  0.49654423311E+02 -0.23355821916E+03  0.24971886543E+03  0.00000000000E+00 0. -1.
<mgrwt>
<rscale>  1 0.30000000E+03</rscale>
<asrwt>0</asrwt>
<pdfrwt beam="1">  1       21 0.38759203E-01 0.30000000E+03</pdfrwt>
<pdfrwt beam="2">0</pdfrwt>
<totfact> 0.64497029E+02</totfact>
</mgrwt>
</event>
<event>
 6    1  0.1273846E-001  0.3000000E+03  0.7818608E-02  0.1093470E+00
         21   -1    0    0  501  502  0.00000000000E+00  0.00000000000E+00  0.50786584518E+01  0.50786584518E+01  0.00000000000E+00 0. -1.
         13   -1    0    0    0    0 -0.00000000000E+00 -0.00000000000E+00 -0.10000000000E+04  0.10000000000E+04  0.00000000000E+00 0.  1.
    9000005    2    1    2  501    0  0.62702060183E+01 -0.32876792019E+02 -0.94109745181E+03  0.94169719394E+03  0.29987224070E+01 0.  0.
         13    1    3    3    0    0  0.36457680043E+01 -0.17211824563E+02 -0.45365437963E+03  0.45399541263E+03  0.00000000000E+00 0.  1.
          1    1    3    3  501    0  0.26244380140E+01 -0.15664967456E+02 -0.48744307218E+03  0.48770178131E+03  0.00000000000E+00 0.  1.
         -3    1    1    2    0  502 -0.62702060183E+01  0.32876792019E+02 -0.53823889737E+02  0.63381464510E+02  0.00000000000E+00 0. -1.
<mgrwt>
<rscale>  1 0.30000000E+03</rscale>
<asrwt>0</asrwt>
<pdfrwt beam="1">  1       21 0.18467888E-01 0.30000000E+03</pdfrwt>
<pdfrwt beam="2">0</pdfrwt>
<totfact> 0.27911386E+03</totfact>
</mgrwt>
</event>
<event>
 6    1  0.1273846E-001  0.3000000E+03  0.7818608E-02  0.1093470E+00
         21   -1    0    0  501  502  0.00000000000E+00  0.00000000000E+00  0.46360668299E+01  0.46360668299E+01  0.00000000000E+00 0. -1.
         13   -1    0    0    0    0 -0.00000000000E+00 -0.00000000000E+00 -0.10000000000E+04  0.10000000000E+04  0.00000000000E+00 0.  1.
    9000005    2    1    2  501    0 -0.13965013501E+02  0.37068556248E+02 -0.90619535844E+03  0.90706489187E+03  0.27551648937E+01 0.  0.
         13    1    3    3    0    0 -0.57727557571E+01  0.16622934848E+02 -0.43213520396E+03  0.43249333079E+03  0.00000000000E+00 0.  1.
          1    1    3    3  501    0 -0.81922577443E+01  0.20445621399E+02 -0.47406015448E+03  0.47457156108E+03  0.00000000000E+00 0.  1.
         -3    1    1    2    0  502  0.13965013501E+02 -0.37068556248E+02 -0.89168574730E+02  0.97571174964E+02  0.00000000000E+00 0. -1.
<mgrwt>
<rscale>  1 0.30000000E+03</rscale>
<asrwt>0</asrwt>
<pdfrwt beam="1">  1       21 0.16858460E-01 0.30000000E+03</pdfrwt>
<pdfrwt beam="2">0</pdfrwt>
<totfact> 0.33129768E+03</totfact>
</mgrwt>
</event>
<event>
 6    1  0.1273846E-001  0.3000000E+03  0.7818608E-02  0.1093470E+00
         21   -1    0    0  501  502  0.00000000000E+00  0.00000000000E+00  0.18934072491E+01  0.18934072491E+01  0.00000000000E+00 0. -1.
         13   -1    0    0    0    0 -0.00000000000E+00 -0.00000000000E+00 -0.10000000000E+04  0.10000000000E+04  0.00000000000E+00 0.  1.
    9000005    2    1    2  501    0  0.39029688306E+02 -0.14520353094E+02 -0.63585852227E+03  0.63725958848E+03  0.70402800261E+01 0.  0.
         13    1    3    3    0    0  0.11581000915E+02 -0.12314162715E+01 -0.15757647195E+03  0.15800626722E+03  0.00000000000E+00 0.  1.
          1    1    3    3  501    0  0.27448687390E+02 -0.13288936823E+02 -0.47828205032E+03  0.47925332126E+03  0.00000000000E+00 0.  1.
         -1    1    1    2    0  502 -0.39029688306E+02  0.14520353094E+02 -0.36224807048E+03  0.36463381877E+03  0.00000000000E+00 0. -1.
<mgrwt>
<rscale>  1 0.30000000E+03</rscale>
<asrwt>0</asrwt>
<pdfrwt beam="1">  1       21 0.68851318E-02 0.30000000E+03</pdfrwt>
<pdfrwt beam="2">0</pdfrwt>
<totfact> 0.16606349E+04</totfact>
</mgrwt>
</event>
<event>
 6    1  0.1273846E-001  0.3000000E+03  0.7818608E-02  0.1093470E+00
         21   -1    0    0  501  502  0.00000000000E+00  0.00000000000E+00  0.16412507579E+01  0.16412507579E+01  0.00000000000E+00 0. -1.
         13   -1    0    0    0    0 -0.00000000000E+00 -0.00000000000E+00 -0.10000000000E+04  0.10000000000E+04  0.00000000000E+00 0.  1.
    9000005    2    1    2  501    0  0.31581929564E+02 -0.24788421460E+02 -0.55883860545E+03  0.56029122990E+03  0.37136567550E+01 0.  0.
         13    1    3    3    0    0  0.83408833108E+01 -0.86731372143E+01 -0.17088560063E+03  0.17130873342E+03  0.00000000000E+00 0.  1.
          3    1    3    3  501    0  0.23241046253E+02 -0.16115284246E+02 -0.38795300482E+03  0.38898249648E+03  0.00000000000E+00 0.  1.
         -3    1    1    2    0  502 -0.31581929564E+02  0.24788421460E+02 -0.43952014379E+03  0.44135002086E+03  0.00000000000E+00 0. -1.
<mgrwt>
<rscale>  1 0.30000000E+03</rscale>
<asrwt>0</asrwt>
<pdfrwt beam="1">  1       21 0.59681972E-02 0.30000000E+03</pdfrwt>
<pdfrwt beam="2">0</pdfrwt>
<totfact> 0.21265670E+04</totfact>
</mgrwt>
</event>
<event>
 6    1  0.1273846E-001  0.3000000E+03  0.7818608E-02  0.1093470E+00
         21   -1    0    0  501  502  0.00000000000E+00  0.00000000000E+00  0.14856636701E+01  0.14856636701E+01  0.00000000000E+00 0. -1.
         13   -1    0    0    0    0 -0.00000000000E+00 -0.00000000000E+00 -0.10000000000E+04  0.10000000000E+04  0.00000000000E+00 0.  1.
    9000005    2    1    2  501    0  0.22054084353E+02  0.28787714935E+02 -0.66728916442E+03  0.66828117740E+03  0.31285681775E+01 0.  0.
         13    1    3    3    0    0  0.78597772510E+01  0.87253457171E+01 -0.19557458844E+03  0.19592684196E+03  0.00000000000E+00 0.  1.
          3    1    3    3  501    0  0.14194307102E+02  0.20062369217E+02 -0.47171457598E+03  0.47235433543E+03  0.00000000000E+00 0.  1.
         -1    1    1    2    0  502 -0.22054084353E+02 -0.28787714935E+02 -0.33122517191E+03  0.33320448627E+03  0.00000000000E+00 0. -1.
<mgrwt>
<rscale>  1 0.30000000E+03</rscale>
<asrwt>0</asrwt>
<pdfrwt beam="1">  1       21 0.54024247E-02 0.30000000E+03</pdfrwt>
<pdfrwt beam="2">0</pdfrwt>
<totfact> 0.25236483E+04</totfact>
</mgrwt>
</event>
<event>
 6    1  0.1273846E-001  0.3000000E+03  0.7818608E-02  0.1093470E+00
         21   -1    0    0  501  502  0.00000000000E+00  0.00000000000E+00  0.11899843911E+01  0.11899843911E+01  0.00000000000E+00 0. -1.
         13   -1    0    0    0    0 -0.00000000000E+00 -0.00000000000E+00 -0.10000000000E+04  0.10000000000E+04  0.00000000000E+00 0.  1.
    9000005    2    1    2  501    0 -0.18021808764E+02 -0.27928728686E+02 -0.63061307482E+03  0.63149580445E+03  0.30498237386E+01 0.  0.
         13    1    3    3    0    0 -0.70916097253E+01 -0.10140501953E+02 -0.20877695883E+03  0.20914334617E+03  0.00000000000E+00 0.  1.
          1    1    3    3  501    0 -0.10930199039E+02 -0.17788226733E+02 -0.42183611599E+03  0.42235245828E+03  0.00000000000E+00 0.  1.
         -3    1    1    2    0  502  0.18021808764E+02  0.27928728686E+02 -0.36819694079E+03  0.36969417994E+03  0.00000000000E+00 0. -1.
<mgrwt>
<rscale>  1 0.30000000E+03</rscale>
<asrwt>0</asrwt>
<pdfrwt beam="1">  1       21 0.43272251E-02 0.30000000E+03</pdfrwt>
<pdfrwt beam="2">0</pdfrwt>
<totfact> 0.36821520E+04</totfact>
</mgrwt>
</event>
<event>
 6    1  0.1273846E-001  0.3000000E+03  0.7818608E-02  0.1093470E+00
         21   -1    0    0  501  502  0.00000000000E+00  0.00000000000E+00  0.11123616148E+01  0.11123616148E+01  0.00000000000E+00 0. -1.
         13   -1    0    0    0    0 -0.00000000000E+00 -0.00000000000E+00 -0.10000000000E+04  0.10000000000E+04  0.00000000000E+00 0.  1.
    9000005    2    1    2  501    0 -0.22101738948E+02 -0.23417850402E+02 -0.62415551020E+03  0.62499927958E+03  0.41371467313E+01 0.  0.
         13    1    3    3    0    0 -0.20381157379E+02 -0.22708765575E+02 -0.59771566305E+03  0.59849402124E+03  0.00000000000E+00 0.  1.
          3    1    3    3  501    0 -0.17205815689E+01 -0.70908482684E+00 -0.26439847149E+02  0.26505258336E+02  0.00000000000E+00 0.  1.
         -1    1    1    2    0  502  0.22101738948E+02  0.23417850402E+02 -0.37473212819E+03  0.37611308204E+03  0.00000000000E+00 0. -1.
<mgrwt>
<rscale>  1 0.30000000E+03</rscale>
<asrwt>0</asrwt>
<pdfrwt beam="1">  1       21 0.40449599E-02 0.30000000E+03</pdfrwt>
<pdfrwt beam="2">0</pdfrwt>
<totfact> 0.41263052E+04</totfact>
</mgrwt>
</event>
<event>
 6    1  0.1273846E-001  0.3000000E+03  0.7818608E-02  0.1093470E+00
         21   -1    0    0  501  502  0.00000000000E+00  0.00000000000E+00  0.25006865163E+01  0.25006865163E+01  0.00000000000E+00 0. -1.
         13   -1    0    0    0    0 -0.00000000000E+00 -0.00000000000E+00 -0.10000000000E+04  0.10000000000E+04  0.00000000000E+00 0.  1.
    9000005    2    1    2  501    0  0.22974529537E+02 -0.37259437896E+02 -0.73619287459E+03  0.73755323941E+03  0.94200663674E+01 0.  0.
         13    1    3    3    0    0  0.53505714603E+01 -0.11607258896E+02 -0.15420009720E+03  0.15472888240E+03  0.00000000000E+00 0.  1.
          3    1    3    3  501    0  0.17623958077E+02 -0.25652179000E+02 -0.58199277739E+03  0.58282435701E+03  0.00000000000E+00 0.  1.
         -3    1    1    2    0  502 -0.22974529537E+02  0.37259437896E+02 -0.26130643889E+03  0.26494744710E+03  0.00000000000E+00 0. -1.
<mgrwt>
<rscale>  1 0.30000000E+03</rscale>
<asrwt>0</asrwt>
<pdfrwt beam="1">  1       21 0.90934247E-02 0.30000000E+03</pdfrwt>
<pdfrwt beam="2">0</pdfrwt>
<totfact> 0.10189850E+04</totfact>
</mgrwt>
</event>
<event>
 6    1  0.1273846E-001  0.3000000E+03  0.7818608E-02  0.1093470E+00
         21   -1    0    0  501  502  0.00000000000E+00  0.00000000000E+00  0.27319996847E+01  0.27319996847E+01  0.00000000000E+00 0. -1.
         13   -1    0    0    0    0 -0.00000000000E+00 -0.00000000000E+00 -0.10000000000E+04  0.10000000000E+04  0.00000000000E+00 0.  1.
    9000005    2    1    2  501    0 -0.27990581307E+02  0.32736324633E+02 -0.78228283764E+03  0.78347470844E+03  0.33228166138E+01 0.  0.
         13    1    3    3    0    0 -0.98222393472E+01  0.12416444436E+02 -0.26103271330E+03  0.26151237426E+03  0.00000000000E+00 0.  1.
          3    1    3    3  501    0 -0.18168341960E+02  0.20319880197E+02 -0.52125012433E+03  0.52196233417E+03  0.00000000000E+00 0.  1.
         -1    1    1    2    0  502  0.27990581307E+02 -0.32736324633E+02 -0.21498516268E+03  0.21925729125E+03  0.00000000000E+00 0. -1.
<mgrwt>
<rscale>  1 0.30000000E+03</rscale>
<asrwt>0</asrwt>
<pdfrwt beam="1">  1       21 0.99345653E-02 0.30000000E+03</pdfrwt>
<pdfrwt beam="2">0</pdfrwt>
<totfact> 0.87046923E+03</totfact>
</mgrwt>
</event>
<event>
 6    1  0.1273846E-001  0.3000000E+03  0.7818608E-02  0.1093470E+00
         21   -1    0    0  501  502  0.00000000000E+00  0.00000000000E+00  0.39757369841E+01  0.39757369841E+01  0.00000000000E+00 0. -1.
         13   -1    0    0    0    0 -0.00000000000E+00 -0.00000000000E+00 -0.10000000000E+04  0.10000000000E+04  0.00000000000E+00 0.  1.
    9000005    2    1    2  501    0  0.55664987729E+01  0.50752116534E+02 -0.79234177828E+03  0.79399164752E+03  0.32372020944E+01 0.  0.
         13    1    3    3    0    0  0.13272738734E+01  0.25359610044E+02 -0.40476620485E+03  0.40556202000E+03  0.00000000000E+00 0.  1.
          1    1    3    3  501    0  0.42392248995E+01  0.25392506489E+02 -0.38757557343E+03  0.38842962751E+03  0.00000000000E+00 0.  1.
         -3    1    1    2    0  502 -0.55664987729E+01 -0.50752116534E+02 -0.20368248474E+03  0.20998408947E+03  0.00000000000E+00 0. -1.
<mgrwt>
<rscale>  1 0.30000000E+03</rscale>
<asrwt>0</asrwt>
<pdfrwt beam="1">  1       21 0.14457256E-01 0.30000000E+03</pdfrwt>
<pdfrwt beam="2">0</pdfrwt>
<totfact> 0.44081031E+03</totfact>
</mgrwt>
</event>
<event>
 6    1  0.1273846E-001  0.3000000E+03  0.7818608E-02  0.1093470E+00
         21   -1    0    0  501  502  0.00000000000E+00  0.00000000000E+00  0.82208206973E+01  0.82208206973E+01  0.00000000000E+00 0. -1.
         13   -1    0    0    0    0 -0.00000000000E+00 -0.00000000000E+00 -0.10000000000E+04  0.10000000000E+04  0.00000000000E+00 0.  1.
    9000005    2    1    2  501    0 -0.23498902927E+02 -0.38194823005E+02 -0.93398172320E+03  0.93506626598E+03  0.40024454969E+01 0.  0.
         13    1    3    3    0    0 -0.14359855004E+02 -0.19810250950E+02 -0.52323481329E+03  0.52380656861E+03  0.00000000000E+00 0.  1.
          3    1    3    3  501    0 -0.91390479227E+01 -0.18384572055E+02 -0.41074690991E+03  0.41125969738E+03  0.00000000000E+00 0.  1.
         -3    1    1    2    0  502  0.23498902927E+02  0.38194823005E+02 -0.57797456106E+02  0.73154554714E+02  0.00000000000E+00 0. -1.
<mgrwt>
<rscale>  1 0.30000000E+03</rscale>
<asrwt>0</asrwt>
<pdfrwt beam="1">  1       21 0.29893956E-01 0.30000000E+03</pdfrwt>
<pdfrwt beam="2">0</pdfrwt>
<totfact> 0.10950068E+03</totfact>
</mgrwt>
</event>
<event>
 6    1  0.1273846E-001  0.3000000E+03  0.7818608E-02  0.1093470E+00
         21   -1    0    0  501  502  0.00000000000E+00  0.00000000000E+00  0.20572297228E+01  0.20572297228E+01  0.00000000000E+00 0. -1.
         13   -1    0    0    0    0 -0.00000000000E+00 -0.00000000000E+00 -0.10000000000E+04  0.10000000000E+04  0.00000000000E+00 0.  1.
    9000005    2    1    2  501    0 -0.15915078272E+02 -0.42232692936E+02 -0.54139098189E+03  0.54328013183E+03  0.34951828580E+01 0.  0.
         13    1    3    3    0    0 -0.89009136704E+00 -0.55537761870E+01 -0.64561290454E+02  0.64805840151E+02  0.00000000000E+00 0.  1.
          3    1    3    3  501    0 -0.15024986905E+02 -0.36678916749E+02 -0.47682969143E+03  0.47847429168E+03  0.00000000000E+00 0.  1.
         -3    1    1    2    0  502  0.15915078272E+02  0.42232692936E+02 -0.45655178839E+03  0.45877709789E+03  0.00000000000E+00 0. -1.
<mgrwt>
<rscale>  1 0.30000000E+03</rscale>
<asrwt>0</asrwt>
<pdfrwt beam="1">  1       21 0.74808511E-02 0.30000000E+03</pdfrwt>
<pdfrwt beam="2">0</pdfrwt>
<totfact> 0.14368630E+04</totfact>
</mgrwt>
</event>
<event>
 6    1  0.1273846E-001  0.3000000E+03  0.7818608E-02  0.1093470E+00
         21   -1    0    0  501  502  0.00000000000E+00  0.00000000000E+00  0.69683276631E+01  0.69683276631E+01  0.00000000000E+00 0. -1.
         13   -1    0    0    0    0 -0.00000000000E+00 -0.00000000000E+00 -0.10000000000E+04  0.10000000000E+04  0.00000000000E+00 0.  1.
    9000005    2    1    2  501    0  0.39714610478E+02 -0.10020230173E+02 -0.58296031701E+02  0.71335721790E+02  0.35640697254E+01 0.  0.
         13    1    3    3    0    0  0.23489109962E+02 -0.71728244834E+01 -0.37058820137E+02  0.44458338339E+02  0.00000000000E+00 0.  1.
          3    1    3    3  501    0  0.16225500516E+02 -0.28474056897E+01 -0.21237211563E+02  0.26877383451E+02  0.00000000000E+00 0.  1.
         -3    1    1    2    0  502 -0.39714610478E+02  0.10020230173E+02 -0.93473564064E+03  0.93563260587E+03  0.00000000000E+00 0. -1.
<mgrwt>
<rscale>  1 0.30000000E+03</rscale>
<asrwt>0</asrwt>
<pdfrwt beam="1">  1       21 0.25339427E-01 0.30000000E+03</pdfrwt>
<pdfrwt beam="2">0</pdfrwt>
<totfact> 0.15189273E+03</totfact>
</mgrwt>
</event>
<event>
 6    1  0.1273846E-001  0.3000000E+03  0.7818608E-02  0.1093470E+00
         21   -1    0    0  501  502  0.00000000000E+00  0.00000000000E+00  0.21778079243E+01  0.21778079243E+01  0.00000000000E+00 0. -1.
         13   -1    0    0    0    0 -0.00000000000E+00 -0.00000000000E+00 -0.10000000000E+04  0.10000000000E+04  0.00000000000E+00 0.  1.
    9000005    2    1    2  501    0  0.40708400371E+02 -0.22381766520E+02 -0.45981484500E+03  0.46216852760E+03  0.34552690740E+01 0.  0.
         13    1    3    3    0    0  0.25373501610E+02 -0.14544882436E+02 -0.30484101101E+03  0.30624077159E+03  0.00000000000E+00 0.  1.
          1    1    3    3  501    0  0.15334898762E+02 -0.78368840847E+01 -0.15497383399E+03  0.15592775600E+03  0.00000000000E+00 0.  1.
         -1    1    1    2    0  502 -0.40708400371E+02  0.22381766520E+02 -0.53800734708E+03  0.54000928033E+03  0.00000000000E+00 0. -1.
<mgrwt>
<rscale>  1 0.30000000E+03</rscale>
<asrwt>0</asrwt>
<pdfrwt beam="1">  1       21 0.79193182E-02 0.30000000E+03</pdfrwt>
<pdfrwt beam="2">0</pdfrwt>
<totfact> 0.13003268E+04</totfact>
</mgrwt>
</event>
<event>
 6    1  0.1273846E-001  0.3000000E+03  0.7818608E-02  0.1093470E+00
         21   -1    0    0  501  502  0.00000000000E+00  0.00000000000E+00  0.12456821331E+01  0.12456821331E+01  0.00000000000E+00 0. -1.
         13   -1    0    0    0    0 -0.00000000000E+00 -0.00000000000E+00 -0.10000000000E+04  0.10000000000E+04  0.00000000000E+00 0.  1.
    9000005    2    1    2  501    0  0.31497279974E+02  0.86945690020E+01 -0.32014364718E+03  0.32184880508E+03  0.51984928092E+01 0.  0.
         13    1    3    3    0    0  0.30862029740E+02  0.79127518858E+01 -0.30168248531E+03  0.30336017943E+03  0.00000000000E+00 0.  1.
          1    1    3    3  501    0  0.63525023345E+00  0.78181711620E+00 -0.18461161871E+02  0.18488625652E+02  0.00000000000E+00 0.  1.
         -1    1    1    2    0  502 -0.31497279974E+02 -0.86945690020E+01 -0.67861067069E+03  0.67939687705E+03  0.00000000000E+00 0. -1.
<mgrwt>
<rscale>  1 0.30000000E+03</rscale>
<asrwt>0</asrwt>
<pdfrwt beam="1">  1       21 0.45297628E-02 0.30000000E+03</pdfrwt>
<pdfrwt beam="2">0</pdfrwt>
<totfact> 0.34074776E+04</totfact>
</mgrwt>
</event>
<event>
 6    1  0.1273846E-001  0.3000000E+03  0.7818608E-02  0.1093470E+00
         21   -1    0    0  501  502  0.00000000000E+00  0.00000000000E+00  0.25883031523E+01  0.25883031523E+01  0.00000000000E+00 0. -1.
         13   -1    0    0    0    0 -0.00000000000E+00 -0.00000000000E+00 -0.10000000000E+04  0.10000000000E+04  0.00000000000E+00 0.  1.
    9000005    2    1    2  501    0 -0.30012080365E+02  0.22066947629E+02 -0.83806286180E+03  0.83894317986E+03  0.94140089176E+01 0.  0.
         13    1    3    3    0    0 -0.99783193543E+00  0.41650402605E+01 -0.81224284267E+02  0.81337123035E+02  0.00000000000E+00 0.  1.
          3    1    3    3  501    0 -0.29014248430E+02  0.17901907368E+02 -0.75683857753E+03  0.75760605682E+03  0.00000000000E+00 0.  1.
         -3    1    1    2    0  502  0.30012080365E+02 -0.22066947629E+02 -0.15934883505E+03  0.16364512329E+03  0.00000000000E+00 0. -1.
<mgrwt>
<rscale>  1 0.30000000E+03</rscale>
<asrwt>0</asrwt>
<pdfrwt beam="1">  1       21 0.94120313E-02 0.30000000E+03</pdfrwt>
<pdfrwt beam="2">0</pdfrwt>
<totfact> 0.95851807E+03</totfact>
</mgrwt>
</event>
<event>
 6    1  0.1273846E-001  0.3000000E+03  0.7818608E-02  0.1093470E+00
         21   -1    0    0  501  502  0.00000000000E+00  0.00000000000E+00  0.12935539524E+01  0.12935539524E+01  0.00000000000E+00 0. -1.
         13   -1    0    0    0    0 -0.00000000000E+00 -0.00000000000E+00 -0.10000000000E+04  0.10000000000E+04  0.00000000000E+00 0.  1.
    9000005    2    1    2  501    0 -0.30803355635E+02 -0.27380851665E+01 -0.75360930835E+03  0.75425317115E+03  0.38095571456E+01 0.  0.
         13    1    3    3    0    0 -0.50577989956E+01 -0.49904890485E+00 -0.16199037574E+03  0.16207008427E+03  0.00000000000E+00 0.  1.
          1    1    3    3  501    0 -0.25745556640E+02 -0.22390362617E+01 -0.59161893261E+03  0.59218308689E+03  0.00000000000E+00 0.  1.
         -1    1    1    2    0  502  0.30803355635E+02  0.27380851665E+01 -0.24509713769E+03  0.24704038280E+03  0.00000000000E+00 0. -1.
<mgrwt>
<rscale>  1 0.30000000E+03</rscale>
<asrwt>0</asrwt>
<pdfrwt beam="1">  1       21 0.47038425E-02 0.30000000E+03</pdfrwt>
<pdfrwt beam="2">0</pdfrwt>
<totfact> 0.31959895E+04</totfact>
</mgrwt>
</event>
<event>
 6    1  0.1273846E-001  0.3000000E+03  0.7818608E-02  0.1093470E+00
         21   -1    0    0  501  502  0.00000000000E+00  0.00000000000E+00  0.99901637656E+00  0.99901637656E+00  0.00000000000E+00 0. -1.
         13   -1    0    0    0    0 -0.00000000000E+00 -0.00000000000E+00 -0.10000000000E+04  0.10000000000E+04  0.00000000000E+00 0.  1.
    9000005    2    1    2  501    0 -0.19422835192E+02  0.23082179987E+02 -0.36107916118E+03  0.36236431241E+03  0.44385482585E+01 0.  0.
         13    1    3    3    0    0 -0.15929488782E+02  0.19575967071E+02 -0.28042376396E+03  0.28155719578E+03  0.00000000000E+00 0.  1.
          3    1    3    3  501    0 -0.34933464104E+01  0.35062129163E+01 -0.80655397217E+02  0.80807116632E+02  0.00000000000E+00 0.  1.
         -1    1    1    2    0  502  0.19422835192E+02 -0.23082179987E+02 -0.63792182244E+03  0.63863470396E+03  0.00000000000E+00 0. -1.
<mgrwt>
<rscale>  1 0.30000000E+03</rscale>
<asrwt>0</asrwt>
<pdfrwt beam="1">  1       21 0.36327945E-02 0.30000000E+03</pdfrwt>
<pdfrwt beam="2">0</pdfrwt>
<totfact> 0.49432727E+04</totfact>
</mgrwt>
</event>
<event>
 6    1  0.1273846E-001  0.3000000E+03  0.7818608E-02  0.1093470E+00
         21   -1    0    0  501  502  0.00000000000E+00  0.00000000000E+00  0.32482198778E+01  0.32482198778E+01  0.00000000000E+00 0. -1.
         13   -1    0    0    0    0 -0.00000000000E+00 -0.00000000000E+00 -0.10000000000E+04  0.10000000000E+04  0.00000000000E+00 0.  1.
    9000005    2    1    2  501    0  0.46154406330E+02  0.17899187208E+02 -0.74644951393E+03  0.74809760830E+03  0.35418321445E+01 0.  0.
         13    1    3    3    0    0  0.46958768048E+01  0.29634219528E+01 -0.88526240902E+02  0.88700216780E+02  0.00000000000E+00 0.  1.
          1    1    3    3  501    0  0.41458529525E+02  0.14935765255E+02 -0.65792327303E+03  0.65939739152E+03  0.00000000000E+00 0.  1.
         -1    1    1    2    0  502 -0.46154406330E+02 -0.17899187208E+02 -0.25030226619E+03  0.25515061158E+03  0.00000000000E+00 0. -1.
<mgrwt>
<rscale>  1 0.30000000E+03</rscale>
<asrwt>0</asrwt>
<pdfrwt beam="1">  1       21 0.11811734E-01 0.30000000E+03</pdfrwt>
<pdfrwt beam="2">0</pdfrwt>
<totfact> 0.63773874E+03</totfact>
</mgrwt>
</event>
<event>
 6    1  0.1273846E-001  0.3000000E+03  0.7818608E-02  0.1093470E+00
         21   -1    0    0  501  502  0.00000000000E+00  0.00000000000E+00  0.21439654721E+01  0.21439654721E+01  0.00000000000E+00 0. -1.
         13   -1    0    0    0    0 -0.00000000000E+00 -0.00000000000E+00 -0.10000000000E+04  0.10000000000E+04  0.00000000000E+00 0.  1.
    9000005    2    1    2  501    0  0.34622525715E+02 -0.15350782909E+02 -0.78684860034E+03  0.78776462154E+03  0.28307716201E+01 0.  0.
         13    1    3    3    0    0  0.26011626901E+02 -0.11480349004E+02 -0.56420988135E+03  0.56492582996E+03  0.00000000000E+00 0.  1.
          3    1    3    3  501    0  0.86108988145E+01 -0.38704339053E+01 -0.22263871899E+03  0.22283879158E+03  0.00000000000E+00 0.  1.
         -3    1    1    2    0  502 -0.34622525715E+02  0.15350782909E+02 -0.21100743419E+03  0.21437934393E+03  0.00000000000E+00 0. -1.
<mgrwt>
<rscale>  1 0.30000000E+03</rscale>
<asrwt>0</asrwt>
<pdfrwt beam="1">  1       21 0.77962545E-02 0.30000000E+03</pdfrwt>
<pdfrwt beam="2">0</pdfrwt>
<totfact> 0.13365582E+04</totfact>
</mgrwt>
</event>
<event>
 6    1  0.1273846E-001  0.3000000E+03  0.7818608E-02  0.1093470E+00
         21   -1    0    0  501  502  0.00000000000E+00  0.00000000000E+00  0.10615791097E+02  0.10615791097E+02  0.00000000000E+00 0. -1.
         13   -1    0    0    0    0 -0.00000000000E+00 -0.00000000000E+00 -0.10000000000E+04  0.10000000000E+04  0.00000000000E+00 0.  1.
    9000005    2    1    2  501    0  0.96711136095E+01  0.75123423883E+02 -0.83717875218E+03  0.84060531992E+03  0.34614328577E+01 0.  0.
         13    1    3    3    0    0  0.75753228575E+00  0.95969428914E+01 -0.95262351453E+02  0.95747536639E+02  0.00000000000E+00 0.  1.
          3    1    3    3  501    0  0.89135813237E+01  0.65526480992E+02 -0.74191640073E+03  0.74485778328E+03  0.00000000000E+00 0.  1.
         -1    1    1    2    0  502 -0.96711136095E+01 -0.75123423883E+02 -0.15220545672E+03  0.17001047118E+03  0.00000000000E+00 0. -1.
<mgrwt>
<rscale>  1 0.30000000E+03</rscale>
<asrwt>0</asrwt>
<pdfrwt beam="1">  1       21 0.38602958E-01 0.30000000E+03</pdfrwt>
<pdfrwt beam="2">0</pdfrwt>
<totfact> 0.65039941E+02</totfact>
</mgrwt>
</event>
<event>
 6    1  0.1273846E-001  0.3000000E+03  0.7818608E-02  0.1093470E+00
         21   -1    0    0  501  502  0.00000000000E+00  0.00000000000E+00  0.13724463533E+01  0.13724463533E+01  0.00000000000E+00 0. -1.
         13   -1    0    0    0    0 -0.00000000000E+00 -0.00000000000E+00 -0.10000000000E+04  0.10000000000E+04  0.00000000000E+00 0.  1.
    9000005    2    1    2  501    0  0.31539879890E+02 -0.14726358986E+02 -0.66913118809E+03  0.67004257358E+03  0.29789044028E+01 0.  0.
         13    1    3    3    0    0  0.27999220322E+02 -0.12729768881E+02 -0.60678237105E+03  0.60756139539E+03  0.00000000000E+00 0.  1.
          1    1    3    3  501    0  0.35406595678E+01 -0.19965901054E+01 -0.62348817036E+02  0.62481178190E+02  0.00000000000E+00 0.  1.
         -3    1    1    2    0  502 -0.31539879890E+02  0.14726358986E+02 -0.32949636556E+03  0.33132987277E+03  0.00000000000E+00 0. -1.
<mgrwt>
<rscale>  1 0.30000000E+03</rscale>
<asrwt>0</asrwt>
<pdfrwt beam="1">  1       21 0.49907245E-02 0.30000000E+03</pdfrwt>
<pdfrwt beam="2">0</pdfrwt>
<totfact> 0.28895973E+04</totfact>
</mgrwt>
</event>
<event>
 6    1  0.1273846E-001  0.3000000E+03  0.7818608E-02  0.1093470E+00
         21   -1    0    0  501  502  0.00000000000E+00  0.00000000000E+00  0.12342732572E+01  0.12342732572E+01  0.00000000000E+00 0. -1.
         13   -1    0    0    0    0 -0.00000000000E+00 -0.00000000000E+00 -0.10000000000E+04  0.10000000000E+04  0.00000000000E+00 0.  1.
    9000005    2    1    2  501    0  0.79149204908E+01 -0.29469754419E+02 -0.74637728664E+03  0.74700792315E+03  0.32666256632E+01 0.  0.
         13    1    3    3    0    0  0.44799304962E+01 -0.10586952939E+02 -0.27959366270E+03  0.27982989399E+03  0.00000000000E+00 0.  1.
          1    1    3    3  501    0  0.34349899946E+01 -0.18882801480E+02 -0.46678362394E+03  0.46717802916E+03  0.00000000000E+00 0.  1.
         -1    1    1    2    0  502 -0.79149204908E+01  0.29469754419E+02 -0.25238844011E+03  0.25422635011E+03  0.00000000000E+00 0. -1.
<mgrwt>
<rscale>  1 0.30000000E+03</rscale>
<asrwt>0</asrwt>
<pdfrwt beam="1">  1       21 0.44882759E-02 0.30000000E+03</pdfrwt>
<pdfrwt beam="2">0</pdfrwt>
<totfact> 0.34611051E+04</totfact>
</mgrwt>
</event>
<event>
 6    1  0.1273846E-001  0.3000000E+03  0.7818608E-02  0.1093470E+00
         21   -1    0    0  501  502  0.00000000000E+00  0.00000000000E+00  0.49731139094E+01  0.49731139094E+01  0.00000000000E+00 0. -1.
         13   -1    0    0    0    0 -0.00000000000E+00 -0.00000000000E+00 -0.10000000000E+04  0.10000000000E+04  0.00000000000E+00 0.  1.
    9000005    2    1    2  501    0 -0.34357999922E+02 -0.25690940082E+02 -0.89621435264E+03  0.89724933136E+03  0.39623449388E+01 0.  0.
         13    1    3    3    0    0 -0.29069134750E+02 -0.22563664110E+02 -0.74043288695E+03  0.74134674317E+03  0.00000000000E+00 0.  1.
          1    1    3    3  501    0 -0.52888651720E+01 -0.31272759721E+01 -0.15578146569E+03  0.15590258818E+03  0.00000000000E+00 0.  1.
         -3    1    1    2    0  502  0.34357999922E+02  0.25690940082E+02 -0.98812533448E+02  0.10772378255E+03  0.00000000000E+00 0. -1.
<mgrwt>
<rscale>  1 0.30000000E+03</rscale>
<asrwt>0</asrwt>
<pdfrwt beam="1">  1       21 0.18084089E-01 0.30000000E+03</pdfrwt>
<pdfrwt beam="2">0</pdfrwt>
<totfact> 0.29039426E+03</totfact>
</mgrwt>
</event>
<event>
 6    1  0.1273846E-001  0.3000000E+03  0.7818608E-02  0.1093470E+00
         21   -1    0    0  501  502  0.00000000000E+00  0.00000000000E+00  0.12654009014E+01  0.12654009014E+01  0.00000000000E+00 0. -1.
         13   -1    0    0    0    0 -0.00000000000E+00 -0.00000000000E+00 -0.10000000000E+04  0.10000000000E+04  0.00000000000E+00 0.  1.
    9000005    2    1    2  501    0 -0.13706625245E+02 -0.30185086390E+02 -0.67142430563E+03  0.67228053921E+03  0.71773382888E+01 0.  0.
         13    1    3    3    0    0 -0.64800613222E+01 -0.22191018008E+02 -0.44567601236E+03  0.44627518468E+03  0.00000000000E+00 0.  1.
          3    1    3    3  501    0 -0.72265639232E+01 -0.79940683819E+01 -0.22574829328E+03  0.22600535452E+03  0.00000000000E+00 0.  1.
         -1    1    1    2    0  502  0.13706625245E+02  0.30185086390E+02 -0.32731029347E+03  0.32898486169E+03  0.00000000000E+00 0. -1.
<mgrwt>
<rscale>  1 0.30000000E+03</rscale>
<asrwt>0</asrwt>
<pdfrwt beam="1">  1       21 0.46014675E-02 0.30000000E+03</pdfrwt>
<pdfrwt beam="2">0</pdfrwt>
<totfact> 0.33177799E+04</totfact>
</mgrwt>
</event>
<event>
 6    1  0.1273846E-001  0.3000000E+03  0.7818608E-02  0.1093470E+00
         21   -1    0    0  501  502  0.00000000000E+00  0.00000000000E+00  0.17118403622E+01  0.17118403622E+01  0.00000000000E+00 0. -1.
         13   -1    0    0    0    0 -0.00000000000E+00 -0.00000000000E+00 -0.10000000000E+04  0.10000000000E+04  0.00000000000E+00 0.  1.
    9000005    2    1    2  501    0 -0.35729055269E+02 -0.22540670704E+01 -0.74962477302E+03  0.75048460049E+03  0.28616500436E+01 0.  0.
         13    1    3    3    0    0 -0.30611616818E+02 -0.16485243033E+01 -0.66039244569E+03  0.66110360084E+03  0.00000000000E+00 0.  1.
          3    1    3    3  501    0 -0.51174384508E+01 -0.60554276713E+00 -0.89232327327E+02  0.89380999650E+02  0.00000000000E+00 0.  1.
         -1    1    1    2    0  502  0.35729055269E+02  0.22540670704E+01 -0.24866338662E+03  0.25122723987E+03  0.00000000000E+00 0. -1.
<mgrwt>
<rscale>  1 0.30000000E+03</rscale>
<asrwt>0</asrwt>
<pdfrwt beam="1">  1       21 0.62248872E-02 0.30000000E+03</pdfrwt>
<pdfrwt beam="2">0</pdfrwt>
<totfact> 0.19775035E+04</totfact>
</mgrwt>
</event>
<event>
 6    1  0.1273846E-001  0.3000000E+03  0.7818608E-02  0.1093470E+00
         21   -1    0    0  501  502  0.00000000000E+00  0.00000000000E+00  0.84134880900E+01  0.84134880900E+01  0.00000000000E+00 0. -1.
         13   -1    0    0    0    0 -0.00000000000E+00 -0.00000000000E+00 -0.10000000000E+04  0.10000000000E+04  0.00000000000E+00 0.  1.
    9000005    2    1    2  501    0 -0.20366208630E+02  0.40524152342E+02 -0.93401953050E+03  0.93512674491E+03  0.35434895657E+01 0.  0.
         13    1    3    3    0    0 -0.11163934420E+02  0.25862940101E+02 -0.56770226700E+03  0.56840072929E+03  0.00000000000E+00 0.  1.
          1    1    3    3  501    0 -0.92022742101E+01  0.14661212241E+02 -0.36631726350E+03  0.36672601562E+03  0.00000000000E+00 0.  1.
         -1    1    1    2    0  502  0.20366208630E+02 -0.40524152342E+02 -0.57566981412E+02  0.73286743179E+02  0.00000000000E+00 0. -1.
<mgrwt>
<rscale>  1 0.30000000E+03</rscale>
<asrwt>0</asrwt>
<pdfrwt beam="1">  1       21 0.30594567E-01 0.30000000E+03</pdfrwt>
<pdfrwt beam="2">0</pdfrwt>
<totfact> 0.10453614E+03</totfact>
</mgrwt>
</event>
<event>
 6    1  0.1273846E-001  0.3000000E+03  0.7818608E-02  0.1093470E+00
         21   -1    0    0  501  502  0.00000000000E+00  0.00000000000E+00  0.12073594818E+01  0.12073594818E+01  0.00000000000E+00 0. -1.
         13   -1    0    0    0    0 -0.00000000000E+00 -0.00000000000E+00 -0.10000000000E+04  0.10000000000E+04  0.00000000000E+00 0.  1.
    9000005    2    1    2  501    0 -0.42985687033E+01 -0.34314730014E+02 -0.47122345138E+03  0.47250590524E+03  0.37829839845E+01 0.  0.
         13    1    3    3    0    0 -0.76279229922E+00 -0.14962797508E+02 -0.18339120184E+03  0.18400217410E+03  0.00000000000E+00 0.  1.
          3    1    3    3  501    0 -0.35357764041E+01 -0.19351932507E+02 -0.28783224955E+03  0.28850373115E+03  0.00000000000E+00 0.  1.
         -3    1    1    2    0  502  0.42985687033E+01  0.34314730014E+02 -0.52756918913E+03  0.52870145424E+03  0.00000000000E+00 0. -1.
<mgrwt>
<rscale>  1 0.30000000E+03</rscale>
<asrwt>0</asrwt>
<pdfrwt beam="1">  1       21 0.43904074E-02 0.30000000E+03</pdfrwt>
<pdfrwt beam="2">0</pdfrwt>
<totfact> 0.35928982E+04</totfact>
</mgrwt>
</event>
<event>
 6    1  0.1273846E-001  0.3000000E+03  0.7818608E-02  0.1093470E+00
         21   -1    0    0  501  502  0.00000000000E+00  0.00000000000E+00  0.93250515099E+00  0.93250515099E+00  0.00000000000E+00 0. -1.
         13   -1    0    0    0    0 -0.00000000000E+00 -0.00000000000E+00 -0.10000000000E+04  0.10000000000E+04  0.00000000000E+00 0.  1.
    9000005    2    1    2  501    0  0.21481762117E+02 -0.21455298905E+02 -0.53002881487E+03  0.53091220849E+03  0.39284321058E+01 0.  0.
         13    1    3    3    0    0  0.63080927904E+01 -0.68761380178E+01 -0.19509679803E+03  0.19531982468E+03  0.00000000000E+00 0.  1.
          1    1    3    3  501    0  0.15173669327E+02 -0.14579160887E+02 -0.33493201684E+03  0.33559238382E+03  0.00000000000E+00 0.  1.
         -1    1    1    2    0  502 -0.21481762117E+02  0.21455298905E+02 -0.46903867998E+03  0.47002029666E+03  0.00000000000E+00 0. -1.
<mgrwt>
<rscale>  1 0.30000000E+03</rscale>
<asrwt>0</asrwt>
<pdfrwt beam="1">  1       21 0.33909350E-02 0.30000000E+03</pdfrwt>
<pdfrwt beam="2">0</pdfrwt>
<totfact> 0.55477959E+04</totfact>
</mgrwt>
</event>
<event>
 6    1  0.1273846E-001  0.3000000E+03  0.7818608E-02  0.1093470E+00
         21   -1    0    0  501  502  0.00000000000E+00  0.00000000000E+00  0.19156498395E+01  0.19156498395E+01  0.00000000000E+00 0. -1.
         13   -1    0    0    0    0 -0.00000000000E+00 -0.00000000000E+00 -0.10000000000E+04  0.10000000000E+04  0.00000000000E+00 0.  1.
    9000005    2    1    2  501    0  0.21914745427E+02  0.24740872700E+02 -0.17274101001E+03  0.17591080967E+03  0.35762509965E+01 0.  0.
         13    1    3    3    0    0  0.25349108971E+01  0.21757200282E+01 -0.23305508421E+02  0.23543709428E+02  0.00000000000E+00 0.  1.
          1    1    3    3  501    0  0.19379834530E+02  0.22565152671E+02 -0.14943550159E+03  0.15236710025E+03  0.00000000000E+00 0.  1.
         -3    1    1    2    0  502 -0.21914745427E+02 -0.24740872700E+02 -0.82534334015E+03  0.82600484017E+03  0.00000000000E+00 0. -1.
<mgrwt>
<rscale>  1 0.30000000E+03</rscale>
<asrwt>0</asrwt>
<pdfrwt beam="1">  1       21 0.69660141E-02 0.30000000E+03</pdfrwt>
<pdfrwt beam="2">0</pdfrwt>
<totfact> 0.16272508E+04</totfact>
</mgrwt>
</event>
<event>
 6    1  0.1273846E-001  0.3000000E+03  0.7818608E-02  0.1093470E+00
         21   -1    0    0  501  502  0.00000000000E+00  0.00000000000E+00  0.64545777807E+01  0.64545777807E+01  0.00000000000E+00 0. -1.
         13   -1    0    0    0    0 -0.00000000000E+00 -0.00000000000E+00 -0.10000000000E+04  0.10000000000E+04  0.00000000000E+00 0.  1.
    9000005    2    1    2  501    0 -0.44759424786E+02  0.12967399737E+02 -0.90665594419E+03  0.90785771700E+03  0.30122453177E+01 0.  0.
         13    1    3    3    0    0 -0.41970723664E+02  0.11572739159E+02 -0.83568403455E+03  0.83681734897E+03  0.00000000000E+00 0.  1.
          3    1    3    3  501    0 -0.27887011228E+01  0.13946605787E+01 -0.70971909642E+02  0.71040368033E+02  0.00000000000E+00 0.  1.
         -3    1    1    2    0  502  0.44759424786E+02 -0.12967399737E+02 -0.86889478027E+02  0.98596860777E+02  0.00000000000E+00 0. -1.
<mgrwt>
<rscale>  1 0.30000000E+03</rscale>
<asrwt>0</asrwt>
<pdfrwt beam="1">  1       21 0.23471241E-01 0.30000000E+03</pdfrwt>
<pdfrwt beam="2">0</pdfrwt>
<totfact> 0.17636032E+03</totfact>
</mgrwt>
</event>
<event>
 6    1  0.1273846E-001  0.3000000E+03  0.7818608E-02  0.1093470E+00
         21   -1    0    0  501  502  0.00000000000E+00  0.00000000000E+00  0.41638201144E+01  0.41638201144E+01  0.00000000000E+00 0. -1.
         13   -1    0    0    0    0 -0.00000000000E+00 -0.00000000000E+00 -0.10000000000E+04  0.10000000000E+04  0.00000000000E+00 0.  1.
    9000005    2    1    2  501    0 -0.38709488160E+02  0.84020041673E+01 -0.89417496988E+03  0.89505827595E+03  0.33797099412E+01 0.  0.
         13    1    3    3    0    0 -0.37701143451E+01  0.14067948600E+01 -0.73443775323E+02  0.73553932374E+02  0.00000000000E+00 0.  1.
          3    1    3    3  501    0 -0.34939373815E+02  0.69952093074E+01 -0.82073119455E+03  0.82150434357E+03  0.00000000000E+00 0.  1.
         -1    1    1    2    0  502  0.38709488160E+02 -0.84020041673E+01 -0.10166121001E+03  0.10910554417E+03  0.00000000000E+00 0. -1.
<mgrwt>
<rscale>  1 0.30000000E+03</rscale>
<asrwt>0</asrwt>
<pdfrwt beam="1">  1       21 0.15141196E-01 0.30000000E+03</pdfrwt>
<pdfrwt beam="2">0</pdfrwt>
<totfact> 0.40472007E+03</totfact>
</mgrwt>
</event>
<event>
 6    1  0.1273846E-001  0.3000000E+03  0.7818608E-02  0.1093470E+00
         21   -1    0    0  501  502  0.00000000000E+00  0.00000000000E+00  0.19943991653E+01  0.19943991653E+01  0.00000000000E+00 0. -1.
         13   -1    0    0    0    0 -0.00000000000E+00 -0.00000000000E+00 -0.10000000000E+04  0.10000000000E+04  0.00000000000E+00 0.  1.
    9000005    2    1    2  501    0 -0.14475444018E+02  0.33787048296E+02 -0.78265065212E+03  0.78352504881E+03  0.42843581404E+01 0.  0.
         13    1    3    3    0    0 -0.59792073313E+01  0.15788885603E+02 -0.40212678418E+03  0.40248104351E+03  0.00000000000E+00 0.  1.
          3    1    3    3  501    0 -0.84962366869E+01  0.17998162693E+02 -0.38052386794E+03  0.38104400530E+03  0.00000000000E+00 0.  1.
         -3    1    1    2    0  502  0.14475444018E+02 -0.33787048296E+02 -0.21535494871E+03  0.21846935036E+03  0.00000000000E+00 0. -1.
<mgrwt>
<rscale>  1 0.30000000E+03</rscale>
<asrwt>0</asrwt>
<pdfrwt beam="1">  1       21 0.72523759E-02 0.30000000E+03</pdfrwt>
<pdfrwt beam="2">0</pdfrwt>
<totfact> 0.15169322E+04</totfact>
</mgrwt>
</event>
<event>
 6    1  0.1273846E-001  0.3000000E+03  0.7818608E-02  0.1093470E+00
         21   -1    0    0  501  502  0.00000000000E+00  0.00000000000E+00  0.29637453618E+01  0.29637453618E+01  0.00000000000E+00 0. -1.
         13   -1    0    0    0    0 -0.00000000000E+00 -0.00000000000E+00 -0.10000000000E+04  0.10000000000E+04  0.00000000000E+00 0.  1.
    9000005    2    1    2  501    0 -0.30900870552E+02 -0.25095661333E+01 -0.91063971963E+03  0.91117309777E+03  0.32486024018E+01 0.  0.
         13    1    3    3    0    0 -0.19630203357E+02 -0.25947478623E+01 -0.61465421101E+03  0.61497306991E+03  0.00000000000E+00 0.  1.
          3    1    3    3  501    0 -0.11270667195E+02  0.85181728955E-01 -0.29598550862E+03  0.29620002787E+03  0.00000000000E+00 0.  1.
         -3    1    1    2    0  502  0.30900870552E+02  0.25095661333E+01 -0.86396535009E+02  0.91790647588E+02  0.00000000000E+00 0. -1.
<mgrwt>
<rscale>  1 0.30000000E+03</rscale>
<asrwt>0</asrwt>
<pdfrwt beam="1">  1       21 0.10777279E-01 0.30000000E+03</pdfrwt>
<pdfrwt beam="2">0</pdfrwt>
<totfact> 0.75236440E+03</totfact>
</mgrwt>
</event>
<event>
 6    1  0.1273846E-001  0.3000000E+03  0.7818608E-02  0.1093470E+00
         21   -1    0    0  501  502  0.00000000000E+00  0.00000000000E+00  0.22872857603E+01  0.22872857603E+01  0.00000000000E+00 0. -1.
         13   -1    0    0    0    0 -0.00000000000E+00 -0.00000000000E+00 -0.10000000000E+04  0.10000000000E+04  0.00000000000E+00 0.  1.
    9000005    2    1    2  501    0 -0.38518925162E+02  0.11307354722E+01 -0.79527845312E+03  0.79621784059E+03  0.31694662239E+01 0.  0.
         13    1    3    3    0    0 -0.19109615483E+02  0.10229495863E+01 -0.36362768328E+03  0.36413090487E+03  0.00000000000E+00 0.  1.
          3    1    3    3  501    0 -0.19409309679E+02  0.10778588589E+00 -0.43165076984E+03  0.43208693572E+03  0.00000000000E+00 0.  1.
         -3    1    1    2    0  502  0.38518925162E+02 -0.11307354722E+01 -0.20243426112E+03  0.20606944517E+03  0.00000000000E+00 0. -1.
<mgrwt>
<rscale>  1 0.30000000E+03</rscale>
<asrwt>0</asrwt>
<pdfrwt beam="1">  1       21 0.83174203E-02 0.30000000E+03</pdfrwt>
<pdfrwt beam="2">0</pdfrwt>
<totfact> 0.11929050E+04</totfact>
</mgrwt>
</event>
<event>
 6    1  0.1273846E-001  0.3000000E+03  0.7818608E-02  0.1093470E+00
         21   -1    0    0  501  502  0.00000000000E+00  0.00000000000E+00  0.14710201036E+01  0.14710201036E+01  0.00000000000E+00 0. -1.
         13   -1    0    0    0    0 -0.00000000000E+00 -0.00000000000E+00 -0.10000000000E+04  0.10000000000E+04  0.00000000000E+00 0.  1.
    9000005    2    1    2  501    0  0.28336667869E+02  0.11268362990E+02 -0.79878398449E+03  0.79941160820E+03  0.85511806832E+01 0.  0.
         13    1    3    3    0    0  0.24060726696E+00 -0.93104133806E+00 -0.36082163415E+02  0.36094975364E+02  0.00000000000E+00 0.  1.
          1    1    3    3  501    0  0.28096060602E+02  0.12199404328E+02 -0.76270182108E+03  0.76331663284E+03  0.00000000000E+00 0.  1.
         -1    1    1    2    0  502 -0.28336667869E+02 -0.11268362990E+02 -0.19974499540E+03  0.20205941190E+03  0.00000000000E+00 0. -1.
<mgrwt>
<rscale>  1 0.30000000E+03</rscale>
<asrwt>0</asrwt>
<pdfrwt beam="1">  1       21 0.53491753E-02 0.30000000E+03</pdfrwt>
<pdfrwt beam="2">0</pdfrwt>
<totfact> 0.25668075E+04</totfact>
</mgrwt>
</event>
<event>
 6    1  0.1273846E-001  0.3000000E+03  0.7818608E-02  0.1093470E+00
         21   -1    0    0  501  502  0.00000000000E+00  0.00000000000E+00  0.19674623899E+01  0.19674623899E+01  0.00000000000E+00 0. -1.
         13   -1    0    0    0    0 -0.00000000000E+00 -0.00000000000E+00 -0.10000000000E+04  0.10000000000E+04  0.00000000000E+00 0.  1.
    9000005    2    1    2  501    0  0.67430159273E+01 -0.43497596890E+02 -0.55568803275E+03  0.55743830679E+03  0.32813008981E+01 0.  0.
         13    1    3    3    0    0  0.31847299413E+01 -0.28927347525E+02 -0.35548764954E+03  0.35667688867E+03  0.00000000000E+00 0.  1.
          3    1    3    3  501    0  0.35582859861E+01 -0.14570249365E+02 -0.20020038321E+03  0.20076141812E+03  0.00000000000E+00 0.  1.
         -1    1    1    2    0  502 -0.67430159273E+01  0.43497596890E+02 -0.44234450486E+03  0.44452915560E+03  0.00000000000E+00 0. -1.
<mgrwt>
<rscale>  1 0.30000000E+03</rscale>
<asrwt>0</asrwt>
<pdfrwt beam="1">  1       21 0.71544238E-02 0.30000000E+03</pdfrwt>
<pdfrwt beam="2">0</pdfrwt>
<totfact> 0.15533497E+04</totfact>
</mgrwt>
</event>
<event>
 6    1  0.1273846E-001  0.3000000E+03  0.7818608E-02  0.1093470E+00
         21   -1    0    0  501  502  0.00000000000E+00  0.00000000000E+00  0.35653414737E+01  0.35653414737E+01  0.00000000000E+00 0. -1.
         13   -1    0    0    0    0 -0.00000000000E+00 -0.00000000000E+00 -0.10000000000E+04  0.10000000000E+04  0.00000000000E+00 0.  1.
    9000005    2    1    2  501    0  0.46848493033E+02 -0.50359860975E+01 -0.80630770380E+03  0.80768680419E+03  0.23912335226E+01 0.  0.
         13    1    3    3    0    0  0.23371573341E+02 -0.17970936237E+01 -0.38449098048E+03  0.38520484687E+03  0.00000000000E+00 0.  1.
          1    1    3    3  501    0  0.23476919692E+02 -0.32388924738E+01 -0.42181672332E+03  0.42248195731E+03  0.00000000000E+00 0.  1.
         -1    1    1    2    0  502 -0.46848493033E+02  0.50359860975E+01 -0.19012695473E+03  0.19587853729E+03  0.00000000000E+00 0. -1.
<mgrwt>
<rscale>  1 0.30000000E+03</rscale>
<asrwt>0</asrwt>
<pdfrwt beam="1">  1       21 0.12964905E-01 0.30000000E+03</pdfrwt>
<pdfrwt beam="2">0</pdfrwt>
<totfact> 0.53830295E+03</totfact>
</mgrwt>
</event>
<event>
 6    1  0.1273846E-001  0.3000000E+03  0.7818608E-02  0.1093470E+00
         21   -1    0    0  501  502  0.00000000000E+00  0.00000000000E+00  0.14475672578E+01  0.14475672578E+01  0.00000000000E+00 0. -1.
         13   -1    0    0    0    0 -0.00000000000E+00 -0.00000000000E+00 -0.10000000000E+04  0.10000000000E+04  0.00000000000E+00 0.  1.
    9000005    2    1    2  501    0 -0.11496131649E+02  0.31629297003E+02 -0.73124749736E+03  0.73203245641E+03  0.40051685300E+01 0.  0.
         13    1    3    3    0    0 -0.56501530319E+01  0.15221774573E+02 -0.39613139372E+03  0.39646400560E+03  0.00000000000E+00 0.  1.
          3    1    3    3  501    0 -0.58459786176E+01  0.16407522430E+02 -0.33511610364E+03  0.33556845081E+03  0.00000000000E+00 0.  1.
         -3    1    1    2    0  502  0.11496131649E+02 -0.31629297003E+02 -0.26730493538E+03  0.26941511084E+03  0.00000000000E+00 0. -1.
<mgrwt>
<rscale>  1 0.30000000E+03</rscale>
<asrwt>0</asrwt>
<pdfrwt beam="1">  1       21 0.52638920E-02 0.30000000E+03</pdfrwt>
<pdfrwt beam="2">0</pdfrwt>
<totfact> 0.26383478E+04</totfact>
</mgrwt>
</event>
<event>
 6    1  0.1273846E-001  0.3000000E+03  0.7818608E-02  0.1093470E+00
         21   -1    0    0  501  502  0.00000000000E+00  0.00000000000E+00  0.19546662194E+01  0.19546662194E+01  0.00000000000E+00 0. -1.
         13   -1    0    0    0    0 -0.00000000000E+00 -0.00000000000E+00 -0.10000000000E+04  0.10000000000E+04  0.00000000000E+00 0.  1.
    9000005    2    1    2  501    0 -0.19387532247E+02  0.39248502723E+02 -0.52306685960E+03  0.52496318589E+03  0.84312249770E+01 0.  0.
         13    1    3    3    0    0 -0.14825003845E+02  0.35643955729E+02 -0.46833034605E+03  0.46991870078E+03  0.00000000000E+00 0.  1.
          3    1    3    3  501    0 -0.45625284025E+01  0.36045469941E+01 -0.54736513554E+02  0.55044485105E+02  0.00000000000E+00 0.  1.
         -1    1    1    2    0  502  0.19387532247E+02 -0.39248502723E+02 -0.47497847418E+03  0.47699148033E+03  0.00000000000E+00 0. -1.
<mgrwt>
<rscale>  1 0.30000000E+03</rscale>
<asrwt>0</asrwt>
<pdfrwt beam="1">  1       21 0.71078922E-02 0.30000000E+03</pdfrwt>
<pdfrwt beam="2">0</pdfrwt>
<totfact> 0.15711177E+04</totfact>
</mgrwt>
</event>
<event>
 6    1  0.1273846E-001  0.3000000E+03  0.7818608E-02  0.1093470E+00
         21   -1    0    0  501  502  0.00000000000E+00  0.00000000000E+00  0.16743948138E+01  0.16743948138E+01  0.00000000000E+00 0. -1.
         13   -1    0    0    0    0 -0.00000000000E+00 -0.00000000000E+00 -0.10000000000E+04  0.10000000000E+04  0.00000000000E+00 0.  1.
    9000005    2    1    2  501    0 -0.14191641836E+02 -0.29577335181E+02 -0.79792701211E+03  0.79860835245E+03  0.34003667038E+01 0.  0.
         13    1    3    3    0    0 -0.81392863900E+01 -0.13042861059E+02 -0.37263334464E+03  0.37295036365E+03  0.00000000000E+00 0.  1.
          1    1    3    3  501    0 -0.60523554456E+01 -0.16534474121E+02 -0.42529366747E+03  0.42565798880E+03  0.00000000000E+00 0.  1.
         -3    1    1    2    0  502  0.14191641836E+02  0.29577335181E+02 -0.20039859308E+03  0.20306604237E+03  0.00000000000E+00 0. -1.
<mgrwt>
<rscale>  1 0.30000000E+03</rscale>
<asrwt>0</asrwt>
<pdfrwt beam="1">  1       21 0.60887213E-02 0.30000000E+03</pdfrwt>
<pdfrwt beam="2">0</pdfrwt>
<totfact> 0.20544769E+04</totfact>
</mgrwt>
</event>
<event>
 6    1  0.1273846E-001  0.3000000E+03  0.7818608E-02  0.1093470E+00
         21   -1    0    0  501  502  0.00000000000E+00  0.00000000000E+00  0.14859945330E+01  0.14859945330E+01  0.00000000000E+00 0. -1.
         13   -1    0    0    0    0 -0.00000000000E+00 -0.00000000000E+00 -0.10000000000E+04  0.10000000000E+04  0.00000000000E+00 0.  1.
    9000005    2    1    2  501    0  0.28999384973E+02  0.17169075902E+02 -0.25835999930E+03  0.26056515238E+03  0.29270973195E+01 0.  0.
         13    1    3    3    0    0  0.18214362784E+02  0.12288613281E+02 -0.16384446527E+03  0.16531116667E+03  0.00000000000E+00 0.  1.
          3    1    3    3  501    0  0.10785022190E+02  0.48804626208E+01 -0.94515534032E+02  0.95253985703E+02  0.00000000000E+00 0.  1.
         -3    1    1    2    0  502 -0.28999384973E+02 -0.17169075902E+02 -0.74015400617E+03  0.74092084216E+03  0.00000000000E+00 0. -1.
<mgrwt>
<rscale>  1 0.30000000E+03</rscale>
<asrwt>0</asrwt>
<pdfrwt beam="1">  1       21 0.54036279E-02 0.30000000E+03</pdfrwt>
<pdfrwt beam="2">0</pdfrwt>
<totfact> 0.25226861E+04</totfact>
</mgrwt>
</event>
<event>
 6    1  0.1273846E-001  0.3000000E+03  0.7818608E-02  0.1093470E+00
         21   -1    0    0  501  502  0.00000000000E+00  0.00000000000E+00  0.32479784411E+01  0.32479784411E+01  0.00000000000E+00 0. -1.
         13   -1    0    0    0    0 -0.00000000000E+00 -0.00000000000E+00 -0.10000000000E+04  0.10000000000E+04  0.00000000000E+00 0.  1.
    9000005    2    1    2  501    0 -0.42295512274E+02  0.31994477394E+02 -0.68188721997E+03  0.68394811902E+03  0.15138757380E+01 0.  0.
         13    1    3    3    0    0 -0.15764229636E+02  0.11386787985E+02 -0.24244550637E+03  0.24322416293E+03  0.00000000000E+00 0.  1.
          1    1    3    3  501    0 -0.26531282638E+02  0.20607689409E+02 -0.43944171360E+03  0.44072395609E+03  0.00000000000E+00 0.  1.
         -1    1    1    2    0  502  0.42295512274E+02 -0.31994477394E+02 -0.31486480159E+03  0.31929985942E+03  0.00000000000E+00 0. -1.
<mgrwt>
<rscale>  1 0.30000000E+03</rscale>
<asrwt>0</asrwt>
<pdfrwt beam="1">  1       21 0.11810856E-01 0.30000000E+03</pdfrwt>
<pdfrwt beam="2">0</pdfrwt>
<totfact> 0.63782463E+03</totfact>
</mgrwt>
</event>
<event>
 6    1  0.1273846E-001  0.3000000E+03  0.7818608E-02  0.1093470E+00
         21   -1    0    0  501  502  0.00000000000E+00  0.00000000000E+00  0.19893452478E+01  0.19893452478E+01  0.00000000000E+00 0. -1.
         13   -1    0    0    0    0 -0.00000000000E+00 -0.00000000000E+00 -0.10000000000E+04  0.10000000000E+04  0.00000000000E+00 0.  1.
    9000005    2    1    2  501    0 -0.44291261162E+02  0.45480054210E+01 -0.51021091574E+03  0.51216183933E+03  0.34886905524E+01 0.  0.
         13    1    3    3    0    0 -0.29109187507E+02  0.46486676273E+01 -0.33608737872E+03  0.33737765344E+03  0.00000000000E+00 0.  1.
          3    1    3    3  501    0 -0.15182073655E+02 -0.10066220633E+00 -0.17412353702E+03  0.17478418589E+03  0.00000000000E+00 0.  1.
         -1    1    1    2    0  502  0.44291261162E+02 -0.45480054210E+01 -0.48779973901E+03  0.48982750591E+03  0.00000000000E+00 0. -1.
<mgrwt>
<rscale>  1 0.30000000E+03</rscale>
<asrwt>0</asrwt>
<pdfrwt beam="1">  1       21 0.72339980E-02 0.30000000E+03</pdfrwt>
<pdfrwt beam="2">0</pdfrwt>
<totfact> 0.15236653E+04</totfact>
</mgrwt>
</event>
<event>
 6    1  0.1273846E-001  0.3000000E+03  0.7818608E-02  0.1093470E+00
         21   -1    0    0  501  502  0.00000000000E+00  0.00000000000E+00  0.12621760859E+01  0.12621760859E+01  0.00000000000E+00 0. -1.
         13   -1    0    0    0    0 -0.00000000000E+00 -0.00000000000E+00 -0.10000000000E+04  0.10000000000E+04  0.00000000000E+00 0.  1.
    9000005    2    1    2  501    0  0.11982012603E+02  0.31101139693E+02 -0.67062768401E+03  0.67146358084E+03  0.33166733234E+01 0.  0.
         13    1    3    3    0    0  0.17568965716E+01  0.55131580369E+01 -0.94064349016E+02  0.94242152739E+02  0.00000000000E+00 0.  1.
          3    1    3    3  501    0  0.10225116032E+02  0.25587981656E+02 -0.57656333499E+03  0.57722142810E+03  0.00000000000E+00 0.  1.
         -1    1    1    2    0  502 -0.11982012603E+02 -0.31101139693E+02 -0.32811013991E+03  0.32979859524E+03  0.00000000000E+00 0. -1.
<mgrwt>
<rscale>  1 0.30000000E+03</rscale>
<asrwt>0</asrwt>
<pdfrwt beam="1">  1       21 0.45897409E-02 0.30000000E+03</pdfrwt>
<pdfrwt beam="2">0</pdfrwt>
<totfact> 0.33321941E+04</totfact>
</mgrwt>
</event>
<event>
 6    1  0.1273846E-001  0.3000000E+03  0.7818608E-02  0.1093470E+00
         21   -1    0    0  501  502  0.00000000000E+00  0.00000000000E+00  0.24380148909E+01  0.24380148909E+01  0.00000000000E+00 0. -1.
         13   -1    0    0    0    0 -0.00000000000E+00 -0.00000000000E+00 -0.10000000000E+04  0.10000000000E+04  0.00000000000E+00 0.  1.
    9000005    2    1    2  501    0  0.13349528104E+02  0.33232964211E+02 -0.84359065060E+03  0.84435635352E+03  0.31346676917E+01 0.  0.
         13    1    3    3    0    0  0.36143969213E+01  0.13043543526E+02 -0.32179398556E+03  0.32207851067E+03  0.00000000000E+00 0.  1.
          1    1    3    3  501    0  0.97351311825E+01  0.20189420685E+02 -0.52179666504E+03  0.52227784285E+03  0.00000000000E+00 0.  1.
         -1    1    1    2    0  502 -0.13349528104E+02 -0.33232964211E+02 -0.15397133451E+03  0.15808166137E+03  0.00000000000E+00 0. -1.
<mgrwt>
<rscale>  1 0.30000000E+03</rscale>
<asrwt>0</asrwt>
<pdfrwt beam="1">  1       21 0.88655274E-02 0.30000000E+03</pdfrwt>
<pdfrwt beam="2">0</pdfrwt>
<totfact> 0.10658414E+04</totfact>
</mgrwt>
</event>
<event>
 6    1  0.1273846E-001  0.3000000E+03  0.7818608E-02  0.1093470E+00
         21   -1    0    0  501  502  0.00000000000E+00  0.00000000000E+00  0.34752148710E+01  0.34752148710E+01  0.00000000000E+00 0. -1.
         13   -1    0    0    0    0 -0.00000000000E+00 -0.00000000000E+00 -0.10000000000E+04  0.10000000000E+04  0.00000000000E+00 0.  1.
    9000005    2    1    2  501    0 -0.18508127925E+02  0.26365434797E+02 -0.91839103305E+03  0.91896148720E+03  0.32308535056E+01 0.  0.
         13    1    3    3    0    0 -0.39044524299E+01  0.46928912655E+01 -0.20940881755E+03  0.20949778244E+03  0.00000000000E+00 0.  1.
          1    1    3    3  501    0 -0.14603675495E+02  0.21672543532E+02 -0.70898221550E+03  0.70946370476E+03  0.00000000000E+00 0.  1.
         -3    1    1    2    0  502  0.18508127925E+02 -0.26365434797E+02 -0.78133752079E+02  0.84513727673E+02  0.00000000000E+00 0. -1.
<mgrwt>
<rscale>  1 0.30000000E+03</rscale>
<asrwt>0</asrwt>
<pdfrwt beam="1">  1       21 0.12637172E-01 0.30000000E+03</pdfrwt>
<pdfrwt beam="2">0</pdfrwt>
<totfact> 0.56404108E+03</totfact>
</mgrwt>
</event>
<event>
 6    1  0.1273846E-001  0.3000000E+03  0.7818608E-02  0.1093470E+00
         21   -1    0    0  501  502  0.00000000000E+00  0.00000000000E+00  0.15327695050E+01  0.15327695050E+01  0.00000000000E+00 0. -1.
         13   -1    0    0    0    0 -0.00000000000E+00 -0.00000000000E+00 -0.10000000000E+04  0.10000000000E+04  0.00000000000E+00 0.  1.
    9000005    2    1    2  501    0 -0.17101123457E+02 -0.29394658916E+02 -0.74595185665E+03  0.74673773732E+03  0.40720396775E+01 0.  0.
         13    1    3    3    0    0 -0.95847565614E+01 -0.14712445350E+02 -0.34456530133E+03  0.34501242078E+03  0.00000000000E+00 0.  1.
          3    1    3    3  501    0 -0.75163668952E+01 -0.14682213566E+02 -0.40138655532E+03  0.40172531655E+03  0.00000000000E+00 0.  1.
         -1    1    1    2    0  502  0.17101123457E+02  0.29394658916E+02 -0.25251537385E+03  0.25479503218E+03  0.00000000000E+00 0. -1.
<mgrwt>
<rscale>  1 0.30000000E+03</rscale>
<asrwt>0</asrwt>
<pdfrwt beam="1">  1       21 0.55737190E-02 0.30000000E+03</pdfrwt>
<pdfrwt beam="2">0</pdfrwt>
<totfact> 0.23921463E+04</totfact>
</mgrwt>
</event>
<event>
 6    1  0.1273846E-001  0.3000000E+03  0.7818608E-02  0.1093470E+00
         21   -1    0    0  501  502  0.00000000000E+00  0.00000000000E+00  0.13631063783E+01  0.13631063783E+01  0.00000000000E+00 0. -1.
         13   -1    0    0    0    0 -0.00000000000E+00 -0.00000000000E+00 -0.10000000000E+04  0.10000000000E+04  0.00000000000E+00 0.  1.
    9000005    2    1    2  501    0  0.28824799427E+02 -0.20676860127E+02 -0.63560529969E+03  0.63660244539E+03  0.31898095540E+01 0.  0.
         13    1    3    3    0    0  0.12134154554E+02 -0.70101598687E+01 -0.23736152673E+03  0.23777483975E+03  0.00000000000E+00 0.  1.
          3    1    3    3  501    0  0.16690644874E+02 -0.13666700259E+02 -0.39824377296E+03  0.39882760564E+03  0.00000000000E+00 0.  1.
         -3    1    1    2    0  502 -0.28824799427E+02  0.20676860127E+02 -0.36303159394E+03  0.36476066098E+03  0.00000000000E+00 0. -1.
<mgrwt>
<rscale>  1 0.30000000E+03</rscale>
<asrwt>0</asrwt>
<pdfrwt beam="1">  1       21 0.49567609E-02 0.30000000E+03</pdfrwt>
<pdfrwt beam="2">0</pdfrwt>
<totfact> 0.29234226E+04</totfact>
</mgrwt>
</event>
<event>
 6    1  0.1273846E-001  0.3000000E+03  0.7818608E-02  0.1093470E+00
         21   -1    0    0  501  502  0.00000000000E+00  0.00000000000E+00  0.11949546768E+01  0.11949546768E+01  0.00000000000E+00 0. -1.
         13   -1    0    0    0    0 -0.00000000000E+00 -0.00000000000E+00 -0.10000000000E+04  0.10000000000E+04  0.00000000000E+00 0.  1.
    9000005    2    1    2  501    0 -0.26817234736E+01  0.33103384958E+02 -0.43318852890E+03  0.43460421226E+03  0.11202410951E+02 0.  0.
         13    1    3    3    0    0  0.21182343571E+01  0.28374082311E+01 -0.83666401874E+02  0.83741295696E+02  0.00000000000E+00 0.  1.
          1    1    3    3  501    0 -0.47999578307E+01  0.30265976727E+02 -0.34952212702E+03  0.35086291656E+03  0.00000000000E+00 0.  1.
         -1    1    1    2    0  502  0.26817234736E+01 -0.33103384958E+02 -0.56561651643E+03  0.56659074242E+03  0.00000000000E+00 0. -1.
<mgrwt>
<rscale>  1 0.30000000E+03</rscale>
<asrwt>0</asrwt>
<pdfrwt beam="1">  1       21 0.43452989E-02 0.30000000E+03</pdfrwt>
<pdfrwt beam="2">0</pdfrwt>
<totfact> 0.36562726E+04</totfact>
</mgrwt>
</event>
<event>
 6    1  0.1273846E-001  0.3000000E+03  0.7818608E-02  0.1093470E+00
         21   -1    0    0  501  502  0.00000000000E+00  0.00000000000E+00  0.28212988127E+01  0.28212988127E+01  0.00000000000E+00 0. -1.
         13   -1    0    0    0    0 -0.00000000000E+00 -0.00000000000E+00 -0.10000000000E+04  0.10000000000E+04  0.00000000000E+00 0.  1.
    9000005    2    1    2  501    0 -0.88923226288E+00  0.39451644080E+02 -0.83399527700E+03  0.83493427464E+03  0.31461028674E+01 0.  0.
         13    1    3    3    0    0 -0.16599853776E+01  0.11354793219E+02 -0.23645574634E+03  0.23673404246E+03  0.00000000000E+00 0.  1.
          1    1    3    3  501    0  0.77075311468E+00  0.28096850861E+02 -0.59753953065E+03  0.59820023218E+03  0.00000000000E+00 0.  1.
         -1    1    1    2    0  502  0.88923226288E+00 -0.39451644080E+02 -0.16318342419E+03  0.16788702417E+03  0.00000000000E+00 0. -1.
<mgrwt>
<rscale>  1 0.30000000E+03</rscale>
<asrwt>0</asrwt>
<pdfrwt beam="1">  1       21 0.10259290E-01 0.30000000E+03</pdfrwt>
<pdfrwt beam="2">0</pdfrwt>
<totfact> 0.82182516E+03</totfact>
</mgrwt>
</event>
<event>
 6    1  0.1273846E-001  0.3000000E+03  0.7818608E-02  0.1093470E+00
         21   -1    0    0  501  502  0.00000000000E+00  0.00000000000E+00  0.13413420064E+01  0.13413420064E+01  0.00000000000E+00 0. -1.
         13   -1    0    0    0    0 -0.00000000000E+00 -0.00000000000E+00 -0.10000000000E+04  0.10000000000E+04  0.00000000000E+00 0.  1.
    9000005    2    1    2  501    0  0.20301687514E+02  0.30288864421E+02 -0.53338272093E+03  0.53463879066E+03  0.34548034126E+01 0.  0.
         13    1    3    3    0    0  0.96114343475E+00  0.11624027307E+01 -0.34142322971E+02  0.34175622813E+02  0.00000000000E+00 0.  1.
          3    1    3    3  501    0  0.19340544079E+02  0.29126461691E+02 -0.49924039796E+03  0.50046316785E+03  0.00000000000E+00 0.  1.
         -1    1    1    2    0  502 -0.20301687514E+02 -0.30288864421E+02 -0.46527593706E+03  0.46670255135E+03  0.00000000000E+00 0. -1.
<mgrwt>
<rscale>  1 0.30000000E+03</rscale>
<asrwt>0</asrwt>
<pdfrwt beam="1">  1       21 0.48776176E-02 0.30000000E+03</pdfrwt>
<pdfrwt beam="2">0</pdfrwt>
<totfact> 0.30046824E+04</totfact>
</mgrwt>
</event>
<event>
 6    1  0.1273846E-001  0.3000000E+03  0.7818608E-02  0.1093470E+00
         21   -1    0    0  501  502  0.00000000000E+00  0.00000000000E+00  0.73558413589E+01  0.73558413589E+01  0.00000000000E+00 0. -1.
         13   -1    0    0    0    0 -0.00000000000E+00 -0.00000000000E+00 -0.10000000000E+04  0.10000000000E+04  0.00000000000E+00 0.  1.
    9000005    2    1    2  501    0 -0.57525672577E+02 -0.25750413488E+02 -0.83784085705E+03  0.84021413806E+03  0.31951905525E+01 0.  0.
         13    1    3    3    0    0 -0.29433135460E+02 -0.12752871478E+02 -0.40573136323E+03  0.40699740085E+03  0.00000000000E+00 0.  1.
          3    1    3    3  501    0 -0.28092537117E+02 -0.12997542010E+02 -0.43210949382E+03  0.43321673720E+03  0.00000000000E+00 0.  1.
         -1    1    1    2    0  502  0.57525672577E+02  0.25750413488E+02 -0.15480330159E+03  0.16714170330E+03  0.00000000000E+00 0. -1.
<mgrwt>
<rscale>  1 0.30000000E+03</rscale>
<asrwt>0</asrwt>
<pdfrwt beam="1">  1       21 0.26748570E-01 0.30000000E+03</pdfrwt>
<pdfrwt beam="2">0</pdfrwt>
<totfact> 0.13654654E+03</totfact>
</mgrwt>
</event>
<event>
 6    1  0.1273846E-001  0.3000000E+03  0.7818608E-02  0.1093470E+00
         21   -1    0    0  501  502  0.00000000000E+00  0.00000000000E+00  0.22357775338E+01  0.22357775338E+01  0.00000000000E+00 0. -1.
         13   -1    0    0    0    0 -0.00000000000E+00 -0.00000000000E+00 -0.10000000000E+04  0.10000000000E+04  0.00000000000E+00 0.  1.
    9000005    2    1    2  501    0 -0.34766667797E+02  0.17200963241E+02 -0.78503354842E+03  0.78599763565E+03  0.31649285998E+01 0.  0.
         13    1    3    3    0    0 -0.20828413324E+02  0.11705718313E+02 -0.50030027795E+03  0.50087045707E+03  0.00000000000E+00 0.  1.
          1    1    3    3  501    0 -0.13938254472E+02  0.54952449287E+01 -0.28473327047E+03  0.28512717858E+03  0.00000000000E+00 0.  1.
         -1    1    1    2    0  502  0.34766667797E+02 -0.17200963241E+02 -0.21273067404E+03  0.21623814188E+03  0.00000000000E+00 0. -1.
<mgrwt>
<rscale>  1 0.30000000E+03</rscale>
<asrwt>0</asrwt>
<pdfrwt beam="1">  1       21 0.81301173E-02 0.30000000E+03</pdfrwt>
<pdfrwt beam="2">0</pdfrwt>
<totfact> 0.12416794E+04</totfact>
</mgrwt>
</event>
<event>
 6    1  0.1273846E-001  0.3000000E+03  0.7818608E-02  0.1093470E+00
         21   -1    0    0  501  502  0.00000000000E+00  0.00000000000E+00  0.76352119357E+01  0.76352119357E+01  0.00000000000E+00 0. -1.
         13   -1    0    0    0    0 -0.00000000000E+00 -0.00000000000E+00 -0.10000000000E+04  0.10000000000E+04  0.00000000000E+00 0.  1.
    9000005    2    1    2  501    0 -0.47974600832E+02  0.72314093619E+01 -0.91516947490E+03  0.91645971094E+03  0.30624159668E+01 0.  0.
         13    1    3    3    0    0 -0.20626206551E+02  0.30565636759E+01 -0.42214026746E+03  0.42265492827E+03  0.00000000000E+00 0.  1.
          1    1    3    3  501    0 -0.27348394281E+02  0.41748456859E+01 -0.49302920744E+03  0.49380478268E+03  0.00000000000E+00 0.  1.
         -1    1    1    2    0  502  0.47974600832E+02 -0.72314093619E+01 -0.77195313166E+02  0.91175500992E+02  0.00000000000E+00 0. -1.
<mgrwt>
<rscale>  1 0.30000000E+03</rscale>
<asrwt>0</asrwt>
<pdfrwt beam="1">  1       21 0.27764466E-01 0.30000000E+03</pdfrwt>
<pdfrwt beam="2">0</pdfrwt>
<totfact> 0.12684585E+03</totfact>
</mgrwt>
</event>
<event>
 6    1  0.1273846E-001  0.3000000E+03  0.7818608E-02  0.1093470E+00
         21   -1    0    0  501  502  0.00000000000E+00  0.00000000000E+00  0.18495516122E+02  0.18495516122E+02  0.00000000000E+00 0. -1.
         13   -1    0    0    0    0 -0.00000000000E+00 -0.00000000000E+00 -0.10000000000E+04  0.10000000000E+04  0.00000000000E+00 0.  1.
    9000005    2    1    2  501    0 -0.10695871096E+03 -0.24032045977E+02 -0.79208195877E+03  0.79963803258E+03  0.30738668821E+01 0.  0.
         13    1    3    3    0    0 -0.90170645030E+02 -0.19995730637E+02 -0.67507387138E+03  0.68136283014E+03  0.00000000000E+00 0.  1.
          3    1    3    3  501    0 -0.16788065930E+02 -0.40363153398E+01 -0.11700808738E+03  0.11827520244E+03  0.00000000000E+00 0.  1.
         -1    1    1    2    0  502  0.10695871096E+03  0.24032045977E+02 -0.18942252511E+03  0.21885748354E+03  0.00000000000E+00 0. -1.
<mgrwt>
<rscale>  1 0.30000000E+03</rscale>
<asrwt>0</asrwt>
<pdfrwt beam="1">  1       21 0.67256564E-01 0.30000000E+03</pdfrwt>
<pdfrwt beam="2">0</pdfrwt>
<totfact> 0.19360455E+02</totfact>
</mgrwt>
</event>
<event>
 6    1  0.1273846E-001  0.3000000E+03  0.7818608E-02  0.1093470E+00
         21   -1    0    0  501  502  0.00000000000E+00  0.00000000000E+00  0.57593211119E+01  0.57593211119E+01  0.00000000000E+00 0. -1.
         13   -1    0    0    0    0 -0.00000000000E+00 -0.00000000000E+00 -0.10000000000E+04  0.10000000000E+04  0.00000000000E+00 0.  1.
    9000005    2    1    2  501    0  0.88620519862E+01 -0.34012491965E+02 -0.94278819341E+03  0.94344765417E+03  0.29176965823E+01 0.  0.
         13    1    3    3    0    0  0.28877477123E+01 -0.64601413398E+01 -0.18816069391E+03  0.18829370474E+03  0.00000000000E+00 0.  1.
          3    1    3    3  501    0  0.59743042739E+01 -0.27552350625E+02 -0.75462749950E+03  0.75515394943E+03  0.00000000000E+00 0.  1.
         -3    1    1    2    0  502 -0.88620519862E+01  0.34012491965E+02 -0.51452485481E+02  0.62311666943E+02  0.00000000000E+00 0. -1.
<mgrwt>
<rscale>  1 0.30000000E+03</rscale>
<asrwt>0</asrwt>
<pdfrwt beam="1">  1       21 0.20943030E-01 0.30000000E+03</pdfrwt>
<pdfrwt beam="2">0</pdfrwt>
<totfact> 0.21968312E+03</totfact>
</mgrwt>
</event>
<event>
 6    1  0.1273846E-001  0.3000000E+03  0.7818608E-02  0.1093470E+00
         21   -1    0    0  501  502  0.00000000000E+00  0.00000000000E+00  0.29723606575E+01  0.29723606575E+01  0.00000000000E+00 0. -1.
         13   -1    0    0    0    0 -0.00000000000E+00 -0.00000000000E+00 -0.10000000000E+04  0.10000000000E+04  0.00000000000E+00 0.  1.
    9000005    2    1    2  501    0 -0.45894739360E+02  0.28767825082E+02 -0.44666020619E+03  0.44994593603E+03  0.34771677708E+01 0.  0.
         13    1    3    3    0    0 -0.39676848192E+02  0.23402880469E+02 -0.37887489641E+03  0.38166495022E+03  0.00000000000E+00 0.  1.
          1    1    3    3  501    0 -0.62178911683E+01  0.53649446135E+01 -0.67785309777E+02  0.68280985808E+02  0.00000000000E+00 0.  1.
         -3    1    1    2    0  502  0.45894739360E+02 -0.28767825082E+02 -0.55036743315E+03  0.55302642463E+03  0.00000000000E+00 0. -1.
<mgrwt>
<rscale>  1 0.30000000E+03</rscale>
<asrwt>0</asrwt>
<pdfrwt beam="1">  1       21 0.10808607E-01 0.30000000E+03</pdfrwt>
<pdfrwt beam="2">0</pdfrwt>
<totfact> 0.74845171E+03</totfact>
</mgrwt>
</event>
<event>
 6    1  0.1273846E-001  0.3000000E+03  0.7818608E-02  0.1093470E+00
         21   -1    0    0  501  502  0.00000000000E+00  0.00000000000E+00  0.25549921201E+01  0.25549921201E+01  0.00000000000E+00 0. -1.
         13   -1    0    0    0    0 -0.00000000000E+00 -0.00000000000E+00 -0.10000000000E+04  0.10000000000E+04  0.00000000000E+00 0.  1.
    9000005    2    1    2  501    0 -0.49577900151E+02  0.53262132389E+01 -0.57784795466E+03  0.58000555856E+03  0.34427496771E+01 0.  0.
         13    1    3    3    0    0 -0.17871286790E+02  0.11305636814E+01 -0.19084248107E+03  0.19168075972E+03  0.00000000000E+00 0.  1.
          1    1    3    3  501    0 -0.31706613361E+02  0.41956495575E+01 -0.38700547359E+03  0.38832479884E+03  0.00000000000E+00 0.  1.
         -1    1    1    2    0  502  0.49577900151E+02 -0.53262132389E+01 -0.41959705322E+03  0.42254943356E+03  0.00000000000E+00 0. -1.
<mgrwt>
<rscale>  1 0.30000000E+03</rscale>
<asrwt>0</asrwt>
<pdfrwt beam="1">  1       21 0.92909000E-02 0.30000000E+03</pdfrwt>
<pdfrwt beam="2">0</pdfrwt>
<totfact> 0.98085415E+03</totfact>
</mgrwt>
</event>
<event>
 6    1  0.1273846E-001  0.3000000E+03  0.7818608E-02  0.1093470E+00
         21   -1    0    0  501  502  0.00000000000E+00  0.00000000000E+00  0.11076307066E+01  0.11076307066E+01  0.00000000000E+00 0. -1.
         13   -1    0    0    0    0 -0.00000000000E+00 -0.00000000000E+00 -0.10000000000E+04  0.10000000000E+04  0.00000000000E+00 0.  1.
    9000005    2    1    2  501    0  0.11903184193E+02  0.30420671514E+02 -0.44862322976E+03  0.44986972474E+03  0.72707571762E+01 0.  0.
         13    1    3    3    0    0  0.12209487040E+02  0.29909053998E+02 -0.42010705160E+03  0.42134731267E+03  0.00000000000E+00 0.  1.
          1    1    3    3  501    0 -0.30630284703E+00  0.51161751523E+00 -0.28516178153E+02  0.28522412072E+02  0.00000000000E+00 0.  1.
         -1    1    1    2    0  502 -0.11903184193E+02 -0.30420671514E+02 -0.55026913954E+03  0.55123790597E+03  0.00000000000E+00 0. -1.
<mgrwt>
<rscale>  1 0.30000000E+03</rscale>
<asrwt>0</asrwt>
<pdfrwt beam="1">  1       21 0.40277565E-02 0.30000000E+03</pdfrwt>
<pdfrwt beam="2">0</pdfrwt>
<totfact> 0.41560422E+04</totfact>
</mgrwt>
</event>
<event>
 6    1  0.1273846E-001  0.3000000E+03  0.7818608E-02  0.1093470E+00
         21   -1    0    0  501  502  0.00000000000E+00  0.00000000000E+00  0.12425961926E+01  0.12425961926E+01  0.00000000000E+00 0. -1.
         13   -1    0    0    0    0 -0.00000000000E+00 -0.00000000000E+00 -0.10000000000E+04  0.10000000000E+04  0.00000000000E+00 0.  1.
    9000005    2    1    2  501    0  0.29277576023E+02 -0.18671255894E+02 -0.58199563993E+03  0.58303671378E+03  0.26631678839E+01 0.  0.
         13    1    3    3    0    0  0.21602032406E+02 -0.15117568459E+02 -0.44314774040E+03  0.44393142320E+03  0.00000000000E+00 0.  1.
          3    1    3    3  501    0  0.76755436176E+01 -0.35536874350E+01 -0.13884789953E+03  0.13910529059E+03  0.00000000000E+00 0.  1.
         -3    1    1    2    0  502 -0.29277576023E+02  0.18671255894E+02 -0.41676176387E+03  0.41820588241E+03  0.00000000000E+00 0. -1.
<mgrwt>
<rscale>  1 0.30000000E+03</rscale>
<asrwt>0</asrwt>
<pdfrwt beam="1">  1       21 0.45185411E-02 0.30000000E+03</pdfrwt>
<pdfrwt beam="2">0</pdfrwt>
<totfact> 0.34218561E+04</totfact>
</mgrwt>
</event>
<event>
 6    1  0.1273846E-001  0.3000000E+03  0.7818608E-02  0.1093470E+00
         21   -1    0    0  501  502  0.00000000000E+00  0.00000000000E+00  0.18703857159E+01  0.18703857159E+01  0.00000000000E+00 0. -1.
         13   -1    0    0    0    0 -0.00000000000E+00 -0.00000000000E+00 -0.10000000000E+04  0.10000000000E+04  0.00000000000E+00 0.  1.
    9000005    2    1    2  501    0  0.39639254683E+02 -0.67608417894E+01 -0.68201755595E+03  0.68321098617E+03  0.35107703703E+01 0.  0.
         13    1    3    3    0    0  0.37571679796E+02 -0.56112692290E+01 -0.64555858901E+03  0.64667535078E+03  0.00000000000E+00 0.  1.
          1    1    3    3  501    0  0.20675748862E+01 -0.11495725604E+01 -0.36458966942E+02  0.36535635391E+02  0.00000000000E+00 0.  1.
         -3    1    1    2    0  502 -0.39639254683E+02  0.67608417894E+01 -0.31611205834E+03  0.31865939955E+03  0.00000000000E+00 0. -1.
<mgrwt>
<rscale>  1 0.30000000E+03</rscale>
<asrwt>0</asrwt>
<pdfrwt beam="1">  1       21 0.68014169E-02 0.30000000E+03</pdfrwt>
<pdfrwt beam="2">0</pdfrwt>
<totfact> 0.16963058E+04</totfact>
</mgrwt>
</event>
<event>
 6    1  0.1273846E-001  0.3000000E+03  0.7818608E-02  0.1093470E+00
         21   -1    0    0  501  502  0.00000000000E+00  0.00000000000E+00  0.25789154801E+01  0.25789154801E+01  0.00000000000E+00 0. -1.
         13   -1    0    0    0    0 -0.00000000000E+00 -0.00000000000E+00 -0.10000000000E+04  0.10000000000E+04  0.00000000000E+00 0.  1.
    9000005    2    1    2  501    0 -0.43841191415E+02 -0.20631874443E+02 -0.64754969052E+03  0.64936833148E+03  0.33021105128E+01 0.  0.
         13    1    3    3    0    0 -0.31358392028E+02 -0.15289533614E+02 -0.44678139452E+03  0.44814142085E+03  0.00000000000E+00 0.  1.
          3    1    3    3  501    0 -0.12482799386E+02 -0.53423408288E+01 -0.20076829599E+03  0.20122691063E+03  0.00000000000E+00 0.  1.
         -3    1    1    2    0  502  0.43841191415E+02  0.20631874443E+02 -0.34987139400E+03  0.35321058400E+03  0.00000000000E+00 0. -1.
<mgrwt>
<rscale>  1 0.30000000E+03</rscale>
<asrwt>0</asrwt>
<pdfrwt beam="1">  1       21 0.93778942E-02 0.30000000E+03</pdfrwt>
<pdfrwt beam="2">0</pdfrwt>
<totfact> 0.96473480E+03</totfact>
</mgrwt>
</event>
<event>
 6    1  0.1273846E-001  0.3000000E+03  0.7818608E-02  0.1093470E+00
         21   -1    0    0  501  502  0.00000000000E+00  0.00000000000E+00  0.24707182694E+01  0.24707182694E+01  0.00000000000E+00 0. -1.
         13   -1    0    0    0    0 -0.00000000000E+00 -0.00000000000E+00 -0.10000000000E+04  0.10000000000E+04  0.00000000000E+00 0.  1.
    9000005    2    1    2  501    0  0.71121993753E+01  0.38980327690E+02 -0.80092684148E+03  0.80191506804E+03  0.37311685179E+01 0.  0.
         13    1    3    3    0    0  0.85264774300E+00  0.20479465552E+01 -0.32391382883E+02  0.32467257019E+02  0.00000000000E+00 0.  1.
          1    1    3    3  501    0  0.62595516323E+01  0.36932381135E+02 -0.76853545860E+03  0.76944781102E+03  0.00000000000E+00 0.  1.
         -3    1    1    2    0  502 -0.71121993753E+01 -0.38980327690E+02 -0.19660244025E+03  0.20055565023E+03  0.00000000000E+00 0. -1.
<mgrwt>
<rscale>  1 0.30000000E+03</rscale>
<asrwt>0</asrwt>
<pdfrwt beam="1">  1       21 0.89844490E-02 0.30000000E+03</pdfrwt>
<pdfrwt beam="2">0</pdfrwt>
<totfact> 0.10409933E+04</totfact>
</mgrwt>
</event>
<event>
 6    1  0.1273846E-001  0.3000000E+03  0.7818608E-02  0.1093470E+00
         21   -1    0    0  501  502  0.00000000000E+00  0.00000000000E+00  0.28955362043E+02  0.28955362043E+02  0.00000000000E+00 0. -1.
         13   -1    0    0    0    0 -0.00000000000E+00 -0.00000000000E+00 -0.10000000000E+04  0.10000000000E+04  0.00000000000E+00 0.  1.
    9000005    2    1    2  501    0  0.57364166689E+02  0.69830269176E+02 -0.92143787906E+03  0.92586440880E+03  0.31975600241E+01 0.  0.
         13    1    3    3    0    0  0.18630252279E+02  0.21097605849E+02 -0.29816068638E+03  0.29948621033E+03  0.00000000000E+00 0.  1.
          1    1    3    3  501    0  0.38733914410E+02  0.48732663327E+02 -0.62327719268E+03  0.62637819847E+03  0.00000000000E+00 0.  1.
         -1    1    1    2    0  502 -0.57364166689E+02 -0.69830269176E+02 -0.49606758893E+02  0.10309095324E+03  0.00000000000E+00 0. -1.
<mgrwt>
<rscale>  1 0.30000000E+03</rscale>
<asrwt>0</asrwt>
<pdfrwt beam="1">  1       21 0.10529245E+00 0.30000000E+03</pdfrwt>
<pdfrwt beam="2">0</pdfrwt>
<totfact> 0.64454811E+01</totfact>
</mgrwt>
</event>
<event>
 6    1  0.1273846E-001  0.3000000E+03  0.7818608E-02  0.1093470E+00
         21   -1    0    0  501  502  0.00000000000E+00  0.00000000000E+00  0.22912675659E+01  0.22912675659E+01  0.00000000000E+00 0. -1.
         13   -1    0    0    0    0 -0.00000000000E+00 -0.00000000000E+00 -0.10000000000E+04  0.10000000000E+04  0.00000000000E+00 0.  1.
    9000005    2    1    2  501    0 -0.39128736184E+02 -0.59991961553E+01 -0.78035598445E+03  0.78136307696E+03  0.23973346573E+01 0.  0.
         13    1    3    3    0    0 -0.34735335302E+01  0.12544634534E+00 -0.64880375952E+02  0.64973412683E+02  0.00000000000E+00 0.  1.
          1    1    3    3  501    0 -0.35655202654E+02 -0.61246425007E+01 -0.71547560850E+03  0.71638966428E+03  0.00000000000E+00 0.  1.
         -3    1    1    2    0  502  0.39128736184E+02  0.59991961553E+01 -0.21735274798E+03  0.22092819061E+03  0.00000000000E+00 0. -1.
<mgrwt>
<rscale>  1 0.30000000E+03</rscale>
<asrwt>0</asrwt>
<pdfrwt beam="1">  1       21 0.83318996E-02 0.30000000E+03</pdfrwt>
<pdfrwt beam="2">0</pdfrwt>
<totfact> 0.11892572E+04</totfact>
</mgrwt>
</event>
<event>
 6    1  0.1273846E-001  0.3000000E+03  0.7818608E-02  0.1093470E+00
         21   -1    0    0  501  502  0.00000000000E+00  0.00000000000E+00  0.22858814836E+01  0.22858814836E+01  0.00000000000E+00 0. -1.
         13   -1    0    0    0    0 -0.00000000000E+00 -0.00000000000E+00 -0.10000000000E+04  0.10000000000E+04  0.00000000000E+00 0.  1.
    9000005    2    1    2  501    0 -0.26500594628E+02  0.38467834955E+02 -0.60312284890E+03  0.60493927473E+03  0.35070504414E+01 0.  0.
         13    1    3    3    0    0 -0.25912078641E+02  0.36558474001E+02 -0.58175033758E+03  0.58347357533E+03  0.00000000000E+00 0.  1.
          3    1    3    3  501    0 -0.58851598723E+00  0.19093609536E+01 -0.21372511328E+02  0.21465699401E+02  0.00000000000E+00 0.  1.
         -1    1    1    2    0  502  0.26500594628E+02 -0.38467834955E+02 -0.39459126961E+03  0.39734660675E+03  0.00000000000E+00 0. -1.
<mgrwt>
<rscale>  1 0.30000000E+03</rscale>
<asrwt>0</asrwt>
<pdfrwt beam="1">  1       21 0.83123138E-02 0.30000000E+03</pdfrwt>
<pdfrwt beam="2">0</pdfrwt>
<totfact> 0.11941956E+04</totfact>
</mgrwt>
</event>
<event>
 6    1  0.1273846E-001  0.3000000E+03  0.7818608E-02  0.1093470E+00
         21   -1    0    0  501  502  0.00000000000E+00  0.00000000000E+00  0.20273735891E+01  0.20273735891E+01  0.00000000000E+00 0. -1.
         13   -1    0    0    0    0 -0.00000000000E+00 -0.00000000000E+00 -0.10000000000E+04  0.10000000000E+04  0.00000000000E+00 0.  1.
    9000005    2    1    2  501    0 -0.35715309568E+02 -0.26467456760E+02 -0.57448327911E+03  0.57621129019E+03  0.35076144813E+01 0.  0.
         13    1    3    3    0    0 -0.92246873738E+01 -0.86962503901E+01 -0.17014793206E+03  0.17061957218E+03  0.00000000000E+00 0.  1.
          3    1    3    3  501    0 -0.26490622194E+02 -0.17771206370E+02 -0.40433534705E+03  0.40559171801E+03  0.00000000000E+00 0.  1.
         -3    1    1    2    0  502  0.35715309568E+02  0.26467456760E+02 -0.42348934730E+03  0.42581608340E+03  0.00000000000E+00 0. -1.
<mgrwt>
<rscale>  1 0.30000000E+03</rscale>
<asrwt>0</asrwt>
<pdfrwt beam="1">  1       21 0.73722831E-02 0.30000000E+03</pdfrwt>
<pdfrwt beam="2">0</pdfrwt>
<totfact> 0.14740906E+04</totfact>
</mgrwt>
</event>
<event>
 6    1  0.1273846E-001  0.3000000E+03  0.7818608E-02  0.1093470E+00
         21   -1    0    0  501  502  0.00000000000E+00  0.00000000000E+00  0.13041074457E+01  0.13041074457E+01  0.00000000000E+00 0. -1.
         13   -1    0    0    0    0 -0.00000000000E+00 -0.00000000000E+00 -0.10000000000E+04  0.10000000000E+04  0.00000000000E+00 0.  1.
    9000005    2    1    2  501    0 -0.34338446981E+02 -0.10217473358E+02 -0.55675583756E+03  0.55791428132E+03  0.27851286242E+01 0.  0.
         13    1    3    3    0    0 -0.25675251562E+02 -0.66827668905E+01 -0.39869750064E+03  0.39957924738E+03  0.00000000000E+00 0.  1.
          3    1    3    3  501    0 -0.86631954190E+01 -0.35347064674E+01 -0.15805833691E+03  0.15833503394E+03  0.00000000000E+00 0.  1.
         -1    1    1    2    0  502  0.34338446981E+02  0.10217473358E+02 -0.44194005500E+03  0.44338982613E+03  0.00000000000E+00 0. -1.
<mgrwt>
<rscale>  1 0.30000000E+03</rscale>
<asrwt>0</asrwt>
<pdfrwt beam="1">  1       21 0.47422189E-02 0.30000000E+03</pdfrwt>
<pdfrwt beam="2">0</pdfrwt>
<totfact> 0.31521324E+04</totfact>
</mgrwt>
</event>
<event>
 6    1  0.1273846E-001  0.3000000E+03  0.7818608E-02  0.1093470E+00
         21   -1    0    0  501  502  0.00000000000E+00  0.00000000000E+00  0.12068945865E+01  0.12068945865E+01  0.00000000000E+00 0. -1.
         13   -1    0    0    0    0 -0.00000000000E+00 -0.00000000000E+00 -0.10000000000E+04  0.10000000000E+04  0.00000000000E+00 0.  1.
    9000005    2    1    2  501    0 -0.11211575160E+02 -0.31889659130E+02 -0.60798715913E+03  0.60894175794E+03  0.43622379872E+01 0.  0.
         13    1    3    3    0    0 -0.87700233175E+01 -0.18506698819E+02 -0.36569321932E+03  0.36626621721E+03  0.00000000000E+00 0.  1.
          1    1    3    3  501    0 -0.24415518421E+01 -0.13382960310E+02 -0.24229393981E+03  0.24267554073E+03  0.00000000000E+00 0.  1.
         -1    1    1    2    0  502  0.11211575160E+02  0.31889659130E+02 -0.39080594628E+03  0.39226513665E+03  0.00000000000E+00 0. -1.
<mgrwt>
<rscale>  1 0.30000000E+03</rscale>
<asrwt>0</asrwt>
<pdfrwt beam="1">  1       21 0.43887168E-02 0.30000000E+03</pdfrwt>
<pdfrwt beam="2">0</pdfrwt>
<totfact> 0.35952425E+04</totfact>
</mgrwt>
</event>
<event>
 6    1  0.1273846E-001  0.3000000E+03  0.7818608E-02  0.1093470E+00
         21   -1    0    0  501  502  0.00000000000E+00  0.00000000000E+00  0.54676455959E+01  0.54676455959E+01  0.00000000000E+00 0. -1.
         13   -1    0    0    0    0 -0.00000000000E+00 -0.00000000000E+00 -0.10000000000E+04  0.10000000000E+04  0.00000000000E+00 0.  1.
    9000005    2    1    2  501    0 -0.58780947981E+02 -0.44827418049E+02 -0.50367179192E+03  0.50907184680E+03  0.20430319671E+01 0.  0.
         13    1    3    3    0    0 -0.32055469551E+02 -0.24989800991E+02 -0.27056605813E+03  0.27360196471E+03  0.00000000000E+00 0.  1.
          3    1    3    3  501    0 -0.26725478430E+02 -0.19837617058E+02 -0.23310573379E+03  0.23546988209E+03  0.00000000000E+00 0.  1.
         -3    1    1    2    0  502  0.58780947981E+02  0.44827418049E+02 -0.49086056249E+03  0.49639579879E+03  0.00000000000E+00 0. -1.
<mgrwt>
<rscale>  1 0.30000000E+03</rscale>
<asrwt>0</asrwt>
<pdfrwt beam="1">  1       21 0.19882390E-01 0.30000000E+03</pdfrwt>
<pdfrwt beam="2">0</pdfrwt>
<totfact> 0.24263757E+03</totfact>
</mgrwt>
</event>
<event>
 6    1  0.1273846E-001  0.3000000E+03  0.7818608E-02  0.1093470E+00
         21   -1    0    0  501  502  0.00000000000E+00  0.00000000000E+00  0.17121295743E+01  0.17121295743E+01  0.00000000000E+00 0. -1.
         13   -1    0    0    0    0 -0.00000000000E+00 -0.00000000000E+00 -0.10000000000E+04  0.10000000000E+04  0.00000000000E+00 0.  1.
    9000005    2    1    2  501    0 -0.32264072434E+02  0.10816438456E+02 -0.78353159347E+03  0.78427656624E+03  0.31636491311E+01 0.  0.
         13    1    3    3    0    0 -0.29138277309E+02  0.10068562689E+02 -0.68674406745E+03  0.68743569105E+03  0.00000000000E+00 0.  1.
          3    1    3    3  501    0 -0.31257951250E+01  0.74787576683E+00 -0.96787526023E+02  0.96840875187E+02  0.00000000000E+00 0.  1.
         -3    1    1    2    0  502  0.32264072434E+02 -0.10816438456E+02 -0.21475627695E+03  0.21743556333E+03  0.00000000000E+00 0. -1.
<mgrwt>
<rscale>  1 0.30000000E+03</rscale>
<asrwt>0</asrwt>
<pdfrwt beam="1">  1       21 0.62259389E-02 0.30000000E+03</pdfrwt>
<pdfrwt beam="2">0</pdfrwt>
<totfact> 0.19769265E+04</totfact>
</mgrwt>
</event>
<event>
 6    1  0.1273846E-001  0.3000000E+03  0.7818608E-02  0.1093470E+00
         21   -1    0    0  501  502  0.00000000000E+00  0.00000000000E+00  0.13228988625E+01  0.13228988625E+01  0.00000000000E+00 0. -1.
         13   -1    0    0    0    0 -0.00000000000E+00 -0.00000000000E+00 -0.10000000000E+04  0.10000000000E+04  0.00000000000E+00 0.  1.
    9000005    2    1    2  501    0  0.33003662800E+02  0.15076203051E+02 -0.51968587807E+03  0.52095936420E+03  0.29518853072E+01 0.  0.
         13    1    3    3    0    0  0.25169774636E+02  0.11724766646E+02 -0.41445868367E+03  0.41538775642E+03  0.00000000000E+00 0.  1.
          3    1    3    3  501    0  0.78338881642E+01  0.33514364056E+01 -0.10522719440E+03  0.10557160778E+03  0.00000000000E+00 0.  1.
         -3    1    1    2    0  502 -0.33003662800E+02 -0.15076203051E+02 -0.47899122307E+03  0.48036353466E+03  0.00000000000E+00 0. -1.
<mgrwt>
<rscale>  1 0.30000000E+03</rscale>
<asrwt>0</asrwt>
<pdfrwt beam="1">  1       21 0.48105515E-02 0.30000000E+03</pdfrwt>
<pdfrwt beam="2">0</pdfrwt>
<totfact> 0.30763377E+04</totfact>
</mgrwt>
</event>
<event>
 6    1  0.1273846E-001  0.3000000E+03  0.7818608E-02  0.1093470E+00
         21   -1    0    0  501  502  0.00000000000E+00  0.00000000000E+00  0.10338164231E+01  0.10338164231E+01  0.00000000000E+00 0. -1.
         13   -1    0    0    0    0 -0.00000000000E+00 -0.00000000000E+00 -0.10000000000E+04  0.10000000000E+04  0.00000000000E+00 0.  1.
    9000005    2    1    2  501    0 -0.15560327222E+02  0.26634789554E+02 -0.63745949710E+03  0.63821344742E+03  0.32028461916E+01 0.  0.
         13    1    3    3    0    0 -0.13364658638E+02  0.21882385145E+02 -0.55007161802E+03  0.55066890036E+03  0.00000000000E+00 0.  1.
          1    1    3    3  501    0 -0.21956685836E+01  0.47524044095E+01 -0.87387879085E+02  0.87544547055E+02  0.00000000000E+00 0.  1.
         -3    1    1    2    0  502  0.15560327222E+02 -0.26634789554E+02 -0.36150668647E+03  0.36282036900E+03  0.00000000000E+00 0. -1.
<mgrwt>
<rscale>  1 0.30000000E+03</rscale>
<asrwt>0</asrwt>
<pdfrwt beam="1">  1       21 0.37593404E-02 0.30000000E+03</pdfrwt>
<pdfrwt beam="2">0</pdfrwt>
<totfact> 0.46671885E+04</totfact>
</mgrwt>
</event>
<event>
 6    1  0.1273846E-001  0.3000000E+03  0.7818608E-02  0.1093470E+00
         21   -1    0    0  501  502  0.00000000000E+00  0.00000000000E+00  0.11331008082E+01  0.11331008082E+01  0.00000000000E+00 0. -1.
         13   -1    0    0    0    0 -0.00000000000E+00 -0.00000000000E+00 -0.10000000000E+04  0.10000000000E+04  0.00000000000E+00 0.  1.
    9000005    2    1    2  501    0  0.32000388158E+02 -0.59380485296E+01 -0.37827061933E+03  0.37968396545E+03  0.34593217241E+01 0.  0.
         13    1    3    3    0    0  0.61679789208E+00  0.22638648107E+00 -0.45389754530E+01  0.45862826605E+01  0.00000000000E+00 0.  1.
          3    1    3    3  501    0  0.31383590266E+02 -0.61644350107E+01 -0.37373164388E+03  0.37509768279E+03  0.00000000000E+00 0.  1.
         -1    1    1    2    0  502 -0.32000388158E+02  0.59380485296E+01 -0.62059627986E+03  0.62144913536E+03  0.00000000000E+00 0. -1.
<mgrwt>
<rscale>  1 0.30000000E+03</rscale>
<asrwt>0</asrwt>
<pdfrwt beam="1">  1       21 0.41203753E-02 0.30000000E+03</pdfrwt>
<pdfrwt beam="2">0</pdfrwt>
<totfact> 0.39997839E+04</totfact>
</mgrwt>
</event>
<event>
 6    1  0.1273846E-001  0.3000000E+03  0.7818608E-02  0.1093470E+00
         21   -1    0    0  501  502  0.00000000000E+00  0.00000000000E+00  0.10073022526E+01  0.10073022526E+01  0.00000000000E+00 0. -1.
         13   -1    0    0    0    0 -0.00000000000E+00 -0.00000000000E+00 -0.10000000000E+04  0.10000000000E+04  0.00000000000E+00 0.  1.
    9000005    2    1    2  501    0 -0.29428092730E+02  0.84554137374E+01 -0.62626924301E+03  0.62702831839E+03  0.37203028502E+01 0.  0.
         13    1    3    3    0    0 -0.39889582314E+01  0.76626382360E+00 -0.11083653280E+03  0.11091093702E+03  0.00000000000E+00 0.  1.
          3    1    3    3  501    0 -0.25439134498E+02  0.76891499138E+01 -0.51543271021E+03  0.51611738137E+03  0.00000000000E+00 0.  1.
         -1    1    1    2    0  502  0.29428092730E+02 -0.84554137374E+01 -0.37272345473E+03  0.37397898386E+03  0.00000000000E+00 0. -1.
<mgrwt>
<rscale>  1 0.30000000E+03</rscale>
<asrwt>0</asrwt>
<pdfrwt beam="1">  1       21 0.36629250E-02 0.30000000E+03</pdfrwt>
<pdfrwt beam="2">0</pdfrwt>
<totfact> 0.48752456E+04</totfact>
</mgrwt>
</event>
<event>
 6    1  0.1273846E-001  0.3000000E+03  0.7818608E-02  0.1093470E+00
         21   -1    0    0  501  502  0.00000000000E+00  0.00000000000E+00  0.21836152452E+01  0.21836152452E+01  0.00000000000E+00 0. -1.
         13   -1    0    0    0    0 -0.00000000000E+00 -0.00000000000E+00 -0.10000000000E+04  0.10000000000E+04  0.00000000000E+00 0.  1.
    9000005    2    1    2  501    0  0.23295440248E+02  0.21494330179E+02 -0.86687223530E+03  0.86745776753E+03  0.32897336649E+01 0.  0.
         13    1    3    3    0    0  0.84176376518E+01  0.58001793145E+01 -0.26437552840E+03  0.26457308767E+03  0.00000000000E+00 0.  1.
          3    1    3    3  501    0  0.14877802597E+02  0.15694150864E+02 -0.60249670690E+03  0.60288467986E+03  0.00000000000E+00 0.  1.
         -1    1    1    2    0  502 -0.23295440248E+02 -0.21494330179E+02 -0.13094414946E+03  0.13472584772E+03  0.00000000000E+00 0. -1.
<mgrwt>
<rscale>  1 0.30000000E+03</rscale>
<asrwt>0</asrwt>
<pdfrwt beam="1">  1       21 0.79404358E-02 0.30000000E+03</pdfrwt>
<pdfrwt beam="2">0</pdfrwt>
<totfact> 0.12942617E+04</totfact>
</mgrwt>
</event>
<event>
 6    1  0.1273846E-001  0.3000000E+03  0.7818608E-02  0.1093470E+00
         21   -1    0    0  501  502  0.00000000000E+00  0.00000000000E+00  0.36902659573E+01  0.36902659573E+01  0.00000000000E+00 0. -1.
         13   -1    0    0    0    0 -0.00000000000E+00 -0.00000000000E+00 -0.10000000000E+04  0.10000000000E+04  0.00000000000E+00 0.  1.
    9000005    2    1    2  501    0  0.28522868436E+01  0.32651915380E+02 -0.92063874231E+03  0.92122583661E+03  0.26580203490E+01 0.  0.
         13    1    3    3    0    0  0.32466894800E+01  0.30907385153E+02 -0.86319179581E+03  0.86375105430E+03  0.00000000000E+00 0.  1.
          1    1    3    3  501    0 -0.39440263644E+00  0.17445302268E+01 -0.57446946500E+02  0.57474782307E+02  0.00000000000E+00 0.  1.
         -3    1    1    2    0  502 -0.28522868436E+01 -0.32651915380E+02 -0.75670991731E+02  0.82464429349E+02  0.00000000000E+00 0. -1.
<mgrwt>
<rscale>  1 0.30000000E+03</rscale>
<asrwt>0</asrwt>
<pdfrwt beam="1">  1       21 0.13419177E-01 0.30000000E+03</pdfrwt>
<pdfrwt beam="2">0</pdfrwt>
<totfact> 0.50545717E+03</totfact>
</mgrwt>
</event>
<event>
 6    1  0.1273846E-001  0.3000000E+03  0.7818608E-02  0.1093470E+00
         21   -1    0    0  501  502  0.00000000000E+00  0.00000000000E+00  0.37720757510E+01  0.37720757510E+01  0.00000000000E+00 0. -1.
         13   -1    0    0    0    0 -0.00000000000E+00 -0.00000000000E+00 -0.10000000000E+04  0.10000000000E+04  0.00000000000E+00 0.  1.
    9000005    2    1    2  501    0 -0.34972301794E+02 -0.43044002034E+00 -0.91058074102E+03  0.91125890282E+03  0.35006962234E+01 0.  0.
         13    1    3    3    0    0 -0.14904029246E+02 -0.47248743878E+00 -0.34456078551E+03  0.34488329656E+03  0.00000000000E+00 0.  1.
          1    1    3    3  501    0 -0.20068272548E+02  0.42047418442E-01 -0.56601995551E+03  0.56637560626E+03  0.00000000000E+00 0.  1.
         -3    1    1    2    0  502  0.34972301794E+02  0.43044002034E+00 -0.85647183226E+02  0.92513172932E+02  0.00000000000E+00 0. -1.
<mgrwt>
<rscale>  1 0.30000000E+03</rscale>
<asrwt>0</asrwt>
<pdfrwt beam="1">  1       21 0.13716668E-01 0.30000000E+03</pdfrwt>
<pdfrwt beam="2">0</pdfrwt>
<totfact> 0.48555290E+03</totfact>
</mgrwt>
</event>
<event>
 6    1  0.1273846E-001  0.3000000E+03  0.7818608E-02  0.1093470E+00
         21   -1    0    0  501  502  0.00000000000E+00  0.00000000000E+00  0.55280652354E+01  0.55280652354E+01  0.00000000000E+00 0. -1.
         13   -1    0    0    0    0 -0.00000000000E+00 -0.00000000000E+00 -0.10000000000E+04  0.10000000000E+04  0.00000000000E+00 0.  1.
    9000005    2    1    2  501    0  0.38227022864E+02 -0.23600197405E+02 -0.89776910801E+03  0.89889921690E+03  0.34865822197E+01 0.  0.
         13    1    3    3    0    0  0.20745638832E+02 -0.14740961703E+02 -0.49657475452E+03  0.49722647185E+03  0.00000000000E+00 0.  1.
          1    1    3    3  501    0  0.17481384032E+02 -0.88592357015E+01 -0.40119435349E+03  0.40167274505E+03  0.00000000000E+00 0.  1.
         -3    1    1    2    0  502 -0.38227022864E+02  0.23600197405E+02 -0.96702826755E+02  0.10662884833E+03  0.00000000000E+00 0. -1.
<mgrwt>
<rscale>  1 0.30000000E+03</rscale>
<asrwt>0</asrwt>
<pdfrwt beam="1">  1       21 0.20102098E-01 0.30000000E+03</pdfrwt>
<pdfrwt beam="2">0</pdfrwt>
<totfact> 0.23760061E+03</totfact>
</mgrwt>
</event>
<event>
 6    1  0.1273846E-001  0.3000000E+03  0.7818608E-02  0.1093470E+00
         21   -1    0    0  501  502  0.00000000000E+00  0.00000000000E+00  0.30179771097E+01  0.30179771097E+01  0.00000000000E+00 0. -1.
         13   -1    0    0    0    0 -0.00000000000E+00 -0.00000000000E+00 -0.10000000000E+04  0.10000000000E+04  0.00000000000E+00 0.  1.
    9000005    2    1    2  501    0  0.16538517436E+02 -0.52262859320E+02 -0.52307740846E+03  0.52595350285E+03  0.34904003852E+01 0.  0.
         13    1    3    3    0    0  0.39581229641E+01 -0.15721938857E+02 -0.14275961166E+03  0.14367725227E+03  0.00000000000E+00 0.  1.
          3    1    3    3  501    0  0.12580394471E+02 -0.36540920462E+02 -0.38031779680E+03  0.38227625058E+03  0.00000000000E+00 0.  1.
         -1    1    1    2    0  502 -0.16538517436E+02  0.52262859320E+02 -0.47390461443E+03  0.47706447426E+03  0.00000000000E+00 0. -1.
<mgrwt>
<rscale>  1 0.30000000E+03</rscale>
<asrwt>0</asrwt>
<pdfrwt beam="1">  1       21 0.10974485E-01 0.30000000E+03</pdfrwt>
<pdfrwt beam="2">0</pdfrwt>
<totfact> 0.72823817E+03</totfact>
</mgrwt>
</event>
<event>
 6    1  0.1273846E-001  0.3000000E+03  0.7818608E-02  0.1093470E+00
         21   -1    0    0  501  502  0.00000000000E+00  0.00000000000E+00  0.23282433759E+01  0.23282433759E+01  0.00000000000E+00 0. -1.
         13   -1    0    0    0    0 -0.00000000000E+00 -0.00000000000E+00 -0.10000000000E+04  0.10000000000E+04  0.00000000000E+00 0.  1.
    9000005    2    1    2  501    0  0.13190830725E+02  0.42782322604E+02 -0.68461297628E+03  0.68608446859E+03  0.35560654831E+01 0.  0.
         13    1    3    3    0    0  0.97335683342E+00  0.67082370575E+01 -0.11497164218E+03  0.11517129145E+03  0.00000000000E+00 0.  1.
          1    1    3    3  501    0  0.12217473891E+02  0.36074085547E+02 -0.56964133410E+03  0.57091317714E+03  0.00000000000E+00 0.  1.
         -3    1    1    2    0  502 -0.13190830725E+02 -0.42782322604E+02 -0.31305878034E+03  0.31624377479E+03  0.00000000000E+00 0. -1.
<mgrwt>
<rscale>  1 0.30000000E+03</rscale>
<asrwt>0</asrwt>
<pdfrwt beam="1">  1       21 0.84663574E-02 0.30000000E+03</pdfrwt>
<pdfrwt beam="2">0</pdfrwt>
<totfact> 0.11561822E+04</totfact>
</mgrwt>
</event>
<event>
 6    1  0.1273846E-001  0.3000000E+03  0.7818608E-02  0.1093470E+00
         21   -1    0    0  501  502  0.00000000000E+00  0.00000000000E+00  0.11440346871E+01  0.11440346871E+01  0.00000000000E+00 0. -1.
         13   -1    0    0    0    0 -0.00000000000E+00 -0.00000000000E+00 -0.10000000000E+04  0.10000000000E+04  0.00000000000E+00 0.  1.
    9000005    2    1    2  501    0 -0.24270642063E+02  0.22437706451E+02 -0.60098634372E+03  0.60190381813E+03  0.33325957565E+01 0.  0.
         13    1    3    3    0    0 -0.12472681547E+01  0.12360116274E+01 -0.48373660835E+02  0.48405521020E+02  0.00000000000E+00 0.  1.
          3    1    3    3  501    0 -0.23023373908E+02  0.21201694823E+02 -0.55261268289E+03  0.55349829711E+03  0.00000000000E+00 0.  1.
         -1    1    1    2    0  502  0.24270642063E+02 -0.22437706451E+02 -0.39786962159E+03  0.39924021656E+03  0.00000000000E+00 0. -1.
<mgrwt>
<rscale>  1 0.30000000E+03</rscale>
<asrwt>0</asrwt>
<pdfrwt beam="1">  1       21 0.41601349E-02 0.30000000E+03</pdfrwt>
<pdfrwt beam="2">0</pdfrwt>
<totfact> 0.39354996E+04</totfact>
</mgrwt>
</event>
<event>
 6    1  0.1273846E-001  0.3000000E+03  0.7818608E-02  0.1093470E+00
         21   -1    0    0  501  502  0.00000000000E+00  0.00000000000E+00  0.29245185583E+01  0.29245185583E+01  0.00000000000E+00 0. -1.
         13   -1    0    0    0    0 -0.00000000000E+00 -0.00000000000E+00 -0.10000000000E+04  0.10000000000E+04  0.00000000000E+00 0.  1.
    9000005    2    1    2  501    0 -0.39156317286E+02  0.31854138703E+02 -0.32080819656E+03  0.32477605109E+03  0.36987892667E+01 0.  0.
         13    1    3    3    0    0 -0.38464174485E+02  0.30493681859E+02 -0.31088563190E+03  0.31473676855E+03  0.00000000000E+00 0.  1.
          3    1    3    3  501    0 -0.69214280141E+00  0.13604568437E+01 -0.99225646587E+01  0.10039282538E+02  0.00000000000E+00 0.  1.
         -1    1    1    2    0  502  0.39156317286E+02 -0.31854138703E+02 -0.67626728488E+03  0.67814846747E+03  0.00000000000E+00 0. -1.
<mgrwt>
<rscale>  1 0.30000000E+03</rscale>
<asrwt>0</asrwt>
<pdfrwt beam="1">  1       21 0.10634635E-01 0.30000000E+03</pdfrwt>
<pdfrwt beam="2">0</pdfrwt>
<totfact> 0.77057687E+03</totfact>
</mgrwt>
</event>
<event>
 6    1  0.1273846E-001  0.3000000E+03  0.7818608E-02  0.1093470E+00
         21   -1    0    0  501  502  0.00000000000E+00  0.00000000000E+00  0.23969776616E+01  0.23969776616E+01  0.00000000000E+00 0. -1.
         13   -1    0    0    0    0 -0.00000000000E+00 -0.00000000000E+00 -0.10000000000E+04  0.10000000000E+04  0.00000000000E+00 0.  1.
    9000005    2    1    2  501    0 -0.19239968313E+02  0.44890944203E+02 -0.52639225253E+03  0.52866185881E+03  0.30305415488E+01 0.  0.
         13    1    3    3    0    0 -0.29629018208E+01  0.96358559334E+01 -0.11502826620E+03  0.11546917568E+03  0.00000000000E+00 0.  1.
          3    1    3    3  501    0 -0.16277066492E+02  0.35255088270E+02 -0.41136398633E+03  0.41319268313E+03  0.00000000000E+00 0.  1.
         -3    1    1    2    0  502  0.19239968313E+02 -0.44890944203E+02 -0.47121076981E+03  0.47373511885E+03  0.00000000000E+00 0. -1.
<mgrwt>
<rscale>  1 0.30000000E+03</rscale>
<asrwt>0</asrwt>
<pdfrwt beam="1">  1       21 0.87163008E-02 0.30000000E+03</pdfrwt>
<pdfrwt beam="2">0</pdfrwt>
<totfact> 0.10983155E+04</totfact>
</mgrwt>
</event>
<event>
 6    1  0.1273846E-001  0.3000000E+03  0.7818608E-02  0.1093470E+00
         21   -1    0    0  501  502  0.00000000000E+00  0.00000000000E+00  0.21057853086E+01  0.21057853086E+01  0.00000000000E+00 0. -1.
         13   -1    0    0    0    0 -0.00000000000E+00 -0.00000000000E+00 -0.10000000000E+04  0.10000000000E+04  0.00000000000E+00 0.  1.
    9000005    2    1    2  501    0 -0.27712185413E+02 -0.28568084528E+02 -0.74700459077E+03  0.74807881024E+03  0.46847642433E+01 0.  0.
         13    1    3    3    0    0 -0.15882840303E+02 -0.15945978345E+02 -0.37871271556E+03  0.37938089010E+03  0.00000000000E+00 0.  1.
          1    1    3    3  501    0 -0.11829345109E+02 -0.12622106183E+02 -0.36829187521E+03  0.36869792014E+03  0.00000000000E+00 0.  1.
         -3    1    1    2    0  502  0.27712185413E+02  0.28568084528E+02 -0.25088962392E+03  0.25402697507E+03  0.00000000000E+00 0. -1.
<mgrwt>
<rscale>  1 0.30000000E+03</rscale>
<asrwt>0</asrwt>
<pdfrwt beam="1">  1       21 0.76574173E-02 0.30000000E+03</pdfrwt>
<pdfrwt beam="2">0</pdfrwt>
<totfact> 0.13793348E+04</totfact>
</mgrwt>
</event>
<event>
 6    1  0.1273846E-001  0.3000000E+03  0.7818608E-02  0.1093470E+00
         21   -1    0    0  501  502  0.00000000000E+00  0.00000000000E+00  0.14334978167E+01  0.14334978167E+01  0.00000000000E+00 0. -1.
         13   -1    0    0    0    0 -0.00000000000E+00 -0.00000000000E+00 -0.10000000000E+04  0.10000000000E+04  0.00000000000E+00 0.  1.
    9000005    2    1    2  501    0 -0.31987651045E+02 -0.33441835164E+01 -0.23763273663E+03  0.23982034868E+03  0.31762774918E+01 0.  0.
         13    1    3    3    0    0 -0.17470124433E+02 -0.88675482693E+00 -0.13843713706E+03  0.13953792495E+03  0.00000000000E+00 0.  1.
          3    1    3    3  501    0 -0.14517526613E+02 -0.24574286895E+01 -0.99195599571E+02  0.10028242373E+03  0.00000000000E+00 0.  1.
         -3    1    1    2    0  502  0.31987651045E+02  0.33441835164E+01 -0.76093376555E+03  0.76161314914E+03  0.00000000000E+00 0. -1.
<mgrwt>
<rscale>  1 0.30000000E+03</rscale>
<asrwt>0</asrwt>
<pdfrwt beam="1">  1       21 0.52127303E-02 0.30000000E+03</pdfrwt>
<pdfrwt beam="2">0</pdfrwt>
<totfact> 0.26827578E+04</totfact>
</mgrwt>
</event>
<event>
 6    1  0.1273846E-001  0.3000000E+03  0.7818608E-02  0.1093470E+00
         21   -1    0    0  501  502  0.00000000000E+00  0.00000000000E+00  0.23702727221E+01  0.23702727221E+01  0.00000000000E+00 0. -1.
         13   -1    0    0    0    0 -0.00000000000E+00 -0.00000000000E+00 -0.10000000000E+04  0.10000000000E+04  0.00000000000E+00 0.  1.
    9000005    2    1    2  501    0  0.45386871412E+02 -0.10296597537E+02 -0.35481381698E+03  0.35787179906E+03  0.36594845172E+01 0.  0.
         13    1    3    3    0    0  0.26559328212E+02 -0.76843158553E+01 -0.21623649092E+03  0.21799694179E+03  0.00000000000E+00 0.  1.
          3    1    3    3  501    0  0.18827543200E+02 -0.26122816816E+01 -0.13857732606E+03  0.13987485727E+03  0.00000000000E+00 0.  1.
         -1    1    1    2    0  502 -0.45386871412E+02  0.10296597537E+02 -0.64281591030E+03  0.64449847366E+03  0.00000000000E+00 0. -1.
<mgrwt>
<rscale>  1 0.30000000E+03</rscale>
<asrwt>0</asrwt>
<pdfrwt beam="1">  1       21 0.86191917E-02 0.30000000E+03</pdfrwt>
<pdfrwt beam="2">0</pdfrwt>
<totfact> 0.11202627E+04</totfact>
</mgrwt>
</event>
<event>
 6    1  0.1273846E-001  0.3000000E+03  0.7818608E-02  0.1093470E+00
         21   -1    0    0  501  502  0.00000000000E+00  0.00000000000E+00  0.16909964172E+01  0.16909964172E+01  0.00000000000E+00 0. -1.
         13   -1    0    0    0    0 -0.00000000000E+00 -0.00000000000E+00 -0.10000000000E+04  0.10000000000E+04  0.00000000000E+00 0.  1.
    9000005    2    1    2  501    0  0.76527614737E+01 -0.32698472191E+02 -0.78111981133E+03  0.78192088909E+03  0.11151784886E+02 0.  0.
         13    1    3    3    0    0  0.21625513984E+01 -0.19413837205E+02 -0.33455149407E+03  0.33512128535E+03  0.00000000000E+00 0.  1.
          3    1    3    3  501    0  0.54902100753E+01 -0.13284634987E+02 -0.44656831726E+03  0.44679960375E+03  0.00000000000E+00 0.  1.
         -1    1    1    2    0  502 -0.76527614737E+01  0.32698472191E+02 -0.21718919225E+03  0.21977010732E+03  0.00000000000E+00 0. -1.
<mgrwt>
<rscale>  1 0.30000000E+03</rscale>
<asrwt>0</asrwt>
<pdfrwt beam="1">  1       21 0.61490908E-02 0.30000000E+03</pdfrwt>
<pdfrwt beam="2">0</pdfrwt>
<totfact> 0.20197864E+04</totfact>
</mgrwt>
</event>
<event>
 6    1  0.1273846E-001  0.3000000E+03  0.7818608E-02  0.1093470E+00
         21   -1    0    0  501  502  0.00000000000E+00  0.00000000000E+00  0.39927495910E+01  0.39927495910E+01  0.00000000000E+00 0. -1.
         13   -1    0    0    0    0 -0.00000000000E+00 -0.00000000000E+00 -0.10000000000E+04  0.10000000000E+04  0.00000000000E+00 0.  1.
    9000005    2    1    2  501    0  0.61694857056E+02 -0.71647148980E+01 -0.40910868187E+03  0.41381691284E+03  0.41152457656E+01 0.  0.
         13    1    3    3    0    0  0.40176242906E+02 -0.34830959805E+01 -0.27571839317E+03  0.27865192406E+03  0.00000000000E+00 0.  1.
          1    1    3    3  501    0  0.21518614150E+02 -0.36816189175E+01 -0.13339028870E+03  0.13516498878E+03  0.00000000000E+00 0.  1.
         -1    1    1    2    0  502 -0.61694857056E+02  0.71647148980E+01 -0.58689856854E+03  0.59017583675E+03  0.00000000000E+00 0. -1.
<mgrwt>
<rscale>  1 0.30000000E+03</rscale>
<asrwt>0</asrwt>
<pdfrwt beam="1">  1       21 0.14519120E-01 0.30000000E+03</pdfrwt>
<pdfrwt beam="2">0</pdfrwt>
<totfact> 0.43735372E+03</totfact>
</mgrwt>
</event>
<event>
 6    1  0.1273846E-001  0.3000000E+03  0.7818608E-02  0.1093470E+00
         21   -1    0    0  501  502  0.00000000000E+00  0.00000000000E+00  0.12984041102E+01  0.12984041102E+01  0.00000000000E+00 0. -1.
         13   -1    0    0    0    0 -0.00000000000E+00 -0.00000000000E+00 -0.10000000000E+04  0.10000000000E+04  0.00000000000E+00 0.  1.
    9000005    2    1    2  501    0 -0.24414087395E+02 -0.26416339683E+02 -0.50022544744E+03  0.50152611473E+03  0.30124437638E+01 0.  0.
         13    1    3    3    0    0 -0.86547195656E+01 -0.85729917050E+01 -0.18815959363E+03  0.18855352829E+03  0.00000000000E+00 0.  1.
          1    1    3    3  501    0 -0.15759367830E+02 -0.17843347978E+02 -0.31206585381E+03  0.31297258643E+03  0.00000000000E+00 0.  1.
         -3    1    1    2    0  502  0.24414087395E+02  0.26416339683E+02 -0.49847614845E+03  0.49977228939E+03  0.00000000000E+00 0. -1.
<mgrwt>
<rscale>  1 0.30000000E+03</rscale>
<asrwt>0</asrwt>
<pdfrwt beam="1">  1       21 0.47214794E-02 0.30000000E+03</pdfrwt>
<pdfrwt beam="2">0</pdfrwt>
<totfact> 0.31757158E+04</totfact>
</mgrwt>
</event>
<event>
 6    1  0.1273846E-001  0.3000000E+03  0.7818608E-02  0.1093470E+00
         21   -1    0    0  501  502  0.00000000000E+00  0.00000000000E+00  0.60452065033E+01  0.60452065033E+01  0.00000000000E+00 0. -1.
         13   -1    0    0    0    0 -0.00000000000E+00 -0.00000000000E+00 -0.10000000000E+04  0.10000000000E+04  0.00000000000E+00 0.  1.
    9000005    2    1    2  501    0 -0.52779196469E+02 -0.40753590200E+02 -0.75540294536E+03  0.75834885420E+03  0.35883305988E+01 0.  0.
         13    1    3    3    0    0 -0.14958148647E+02 -0.11389492769E+02 -0.23173773085E+03  0.23249912399E+03  0.00000000000E+00 0.  1.
          1    1    3    3  501    0 -0.37821047822E+02 -0.29364097431E+02 -0.52366521451E+03  0.52584973021E+03  0.00000000000E+00 0.  1.
         -1    1    1    2    0  502  0.52779196469E+02  0.40753590200E+02 -0.23855184814E+03  0.24769635230E+03  0.00000000000E+00 0. -1.
<mgrwt>
<rscale>  1 0.30000000E+03</rscale>
<asrwt>0</asrwt>
<pdfrwt beam="1">  1       21 0.21982615E-01 0.30000000E+03</pdfrwt>
<pdfrwt beam="2">0</pdfrwt>
<totfact> 0.20016374E+03</totfact>
</mgrwt>
</event>
<event>
 6    1  0.1273846E-001  0.3000000E+03  0.7818608E-02  0.1093470E+00
         21   -1    0    0  501  502  0.00000000000E+00  0.00000000000E+00  0.14854366658E+01  0.14854366658E+01  0.00000000000E+00 0. -1.
         13   -1    0    0    0    0 -0.00000000000E+00 -0.00000000000E+00 -0.10000000000E+04  0.10000000000E+04  0.00000000000E+00 0.  1.
    9000005    2    1    2  501    0  0.31015729980E+02  0.77497701546E+01 -0.77461232737E+03  0.77531239293E+03  0.79381654800E+01 0.  0.
         13    1    3    3    0    0  0.25319629100E+01  0.19610365015E+01 -0.41179557928E+02  0.41303904070E+02  0.00000000000E+00 0.  1.
          3    1    3    3  501    0  0.28483767070E+02  0.57887336531E+01 -0.73343276944E+03  0.73400848886E+03  0.00000000000E+00 0.  1.
         -1    1    1    2    0  502 -0.31015729980E+02 -0.77497701546E+01 -0.22390223597E+03  0.22617304374E+03  0.00000000000E+00 0. -1.
<mgrwt>
<rscale>  1 0.30000000E+03</rscale>
<asrwt>0</asrwt>
<pdfrwt beam="1">  1       21 0.54015993E-02 0.30000000E+03</pdfrwt>
<pdfrwt beam="2">0</pdfrwt>
<totfact> 0.25243087E+04</totfact>
</mgrwt>
</event>
<event>
 6    1  0.1273846E-001  0.3000000E+03  0.7818608E-02  0.1093470E+00
         21   -1    0    0  501  502  0.00000000000E+00  0.00000000000E+00  0.24947372575E+01  0.24947372575E+01  0.00000000000E+00 0. -1.
         13   -1    0    0    0    0 -0.00000000000E+00 -0.00000000000E+00 -0.10000000000E+04  0.10000000000E+04  0.00000000000E+00 0.  1.
    9000005    2    1    2  501    0  0.70282947510E+01  0.47666021012E+02 -0.37270248320E+03  0.37583696797E+03  0.49838762099E+01 0.  0.
         13    1    3    3    0    0  0.75319727402E+01  0.36980673573E+02 -0.29154995009E+03  0.29398243864E+03  0.00000000000E+00 0.  1.
          3    1    3    3  501    0 -0.50367798924E+00  0.10685347440E+02 -0.81152533111E+02  0.81854529329E+02  0.00000000000E+00 0.  1.
         -3    1    1    2    0  502 -0.70282947510E+01 -0.47666021012E+02 -0.62480277954E+03  0.62665776928E+03  0.00000000000E+00 0. -1.
<mgrwt>
<rscale>  1 0.30000000E+03</rscale>
<asrwt>0</asrwt>
<pdfrwt beam="1">  1       21 0.90717910E-02 0.30000000E+03</pdfrwt>
<pdfrwt beam="2">0</pdfrwt>
<totfact> 0.10232978E+04</totfact>
</mgrwt>
</event>
<event>
 6    1  0.1273846E-001  0.3000000E+03  0.7818608E-02  0.1093470E+00
         21   -1    0    0  501  502  0.00000000000E+00  0.00000000000E+00  0.25722085822E+01  0.25722085822E+01  0.00000000000E+00 0. -1.
         13   -1    0    0    0    0 -0.00000000000E+00 -0.00000000000E+00 -0.10000000000E+04  0.10000000000E+04  0.00000000000E+00 0.  1.
    9000005    2    1    2  501    0  0.16330982575E+02  0.42981466964E+02 -0.28983879723E+03  0.29349090705E+03  0.40344323040E+01 0.  0.
         13    1    3    3    0    0  0.32023382943E+01  0.98490803352E+01 -0.76054784799E+02  0.76756691206E+02  0.00000000000E+00 0.  1.
          1    1    3    3  501    0  0.13128644280E+02  0.33132386629E+02 -0.21378401243E+03  0.21673421584E+03  0.00000000000E+00 0.  1.
         -1    1    1    2    0  502 -0.16330982575E+02 -0.42981466964E+02 -0.70758899419E+03  0.70908130154E+03  0.00000000000E+00 0. -1.
<mgrwt>
<rscale>  1 0.30000000E+03</rscale>
<asrwt>0</asrwt>
<pdfrwt beam="1">  1       21 0.93535055E-02 0.30000000E+03</pdfrwt>
<pdfrwt beam="2">0</pdfrwt>
<totfact> 0.96921343E+03</totfact>
</mgrwt>
</event>
<event>
 6    1  0.1273846E-001  0.3000000E+03  0.7818608E-02  0.1093470E+00
         21   -1    0    0  501  502  0.00000000000E+00  0.00000000000E+00  0.14106652096E+01  0.14106652096E+01  0.00000000000E+00 0. -1.
         13   -1    0    0    0    0 -0.00000000000E+00 -0.00000000000E+00 -0.10000000000E+04  0.10000000000E+04  0.00000000000E+00 0.  1.
    9000005    2    1    2  501    0 -0.32359189175E+02  0.95807170423E+01 -0.71721843108E+03  0.71802313423E+03  0.40045146057E+01 0.  0.
         13    1    3    3    0    0 -0.19155206107E+02  0.55747715495E+01 -0.46462990211E+03  0.46505800276E+03  0.00000000000E+00 0.  1.
          1    1    3    3  501    0 -0.13203983068E+02  0.40059454929E+01 -0.25258852897E+03  0.25296513147E+03  0.00000000000E+00 0.  1.
         -1    1    1    2    0  502  0.32359189175E+02 -0.95807170423E+01 -0.28137090371E+03  0.28338753098E+03  0.00000000000E+00 0. -1.
<mgrwt>
<rscale>  1 0.30000000E+03</rscale>
<asrwt>0</asrwt>
<pdfrwt beam="1">  1       21 0.51297025E-02 0.30000000E+03</pdfrwt>
<pdfrwt beam="2">0</pdfrwt>
<totfact> 0.27573379E+04</totfact>
</mgrwt>
</event>
<event>
 6    1  0.1273846E-001  0.3000000E+03  0.7818608E-02  0.1093470E+00
         21   -1    0    0  501  502  0.00000000000E+00  0.00000000000E+00  0.11902766685E+01  0.11902766685E+01  0.00000000000E+00 0. -1.
         13   -1    0    0    0    0 -0.00000000000E+00 -0.00000000000E+00 -0.10000000000E+04  0.10000000000E+04  0.00000000000E+00 0.  1.
    9000005    2    1    2  501    0  0.31425898692E+02 -0.48521103730E+01 -0.69182731518E+03  0.69256537651E+03  0.32613841869E+01 0.  0.
         13    1    3    3    0    0  0.92882305522E+01 -0.20114163582E+01 -0.17793712563E+03  0.17819073404E+03  0.00000000000E+00 0.  1.
          1    1    3    3  501    0  0.22137668139E+02 -0.28406940148E+01 -0.51389018955E+03  0.51437464247E+03  0.00000000000E+00 0.  1.
         -1    1    1    2    0  502 -0.31425898692E+02  0.48521103730E+01 -0.30698240815E+03  0.30862490016E+03  0.00000000000E+00 0. -1.
<mgrwt>
<rscale>  1 0.30000000E+03</rscale>
<asrwt>0</asrwt>
<pdfrwt beam="1">  1       21 0.43282879E-02 0.30000000E+03</pdfrwt>
<pdfrwt beam="2">0</pdfrwt>
<totfact> 0.36806223E+04</totfact>
</mgrwt>
</event>
<event>
 6    1  0.1273846E-001  0.3000000E+03  0.7818608E-02  0.1093470E+00
         21   -1    0    0  501  502  0.00000000000E+00  0.00000000000E+00  0.51462617989E+01  0.51462617989E+01  0.00000000000E+00 0. -1.
         13   -1    0    0    0    0 -0.00000000000E+00 -0.00000000000E+00 -0.10000000000E+04  0.10000000000E+04  0.00000000000E+00 0.  1.
    9000005    2    1    2  501    0  0.46629380025E+02  0.50771783682E+02 -0.63567844766E+03  0.63941553786E+03  0.36149873923E+01 0.  0.
         13    1    3    3    0    0  0.30407452181E+02  0.34410124244E+02 -0.43660903154E+03  0.43901721631E+03  0.00000000000E+00 0.  1.
          3    1    3    3  501    0  0.16221927845E+02  0.16361659438E+02 -0.19906941612E+03  0.20039832154E+03  0.00000000000E+00 0.  1.
         -1    1    1    2    0  502 -0.46629380025E+02 -0.50771783682E+02 -0.35917529054E+03  0.36573072394E+03  0.00000000000E+00 0. -1.
<mgrwt>
<rscale>  1 0.30000000E+03</rscale>
<asrwt>0</asrwt>
<pdfrwt beam="1">  1       21 0.18713719E-01 0.30000000E+03</pdfrwt>
<pdfrwt beam="2">0</pdfrwt>
<totfact> 0.27222351E+03</totfact>
</mgrwt>
</event>
<event>
 6    1  0.1273846E-001  0.3000000E+03  0.7818608E-02  0.1093470E+00
         21   -1    0    0  501  502  0.00000000000E+00  0.00000000000E+00  0.32214453102E+01  0.32214453102E+01  0.00000000000E+00 0. -1.
         13   -1    0    0    0    0 -0.00000000000E+00 -0.00000000000E+00 -0.10000000000E+04  0.10000000000E+04  0.00000000000E+00 0.  1.
    9000005    2    1    2  501    0  0.55812175830E+02  0.77579308947E+00 -0.58654090089E+03  0.58920389324E+03  0.39241009425E+01 0.  0.
         13    1    3    3    0    0  0.51180653195E+02 -0.30347108722E+00 -0.54070774439E+03  0.54312467832E+03  0.00000000000E+00 0.  1.
          1    1    3    3  501    0  0.46315226354E+01  0.10792641767E+01 -0.45833156494E+02  0.46079214916E+02  0.00000000000E+00 0.  1.
         -1    1    1    2    0  502 -0.55812175830E+02 -0.77579308947E+00 -0.41023765380E+03  0.41401755207E+03  0.00000000000E+00 0. -1.
<mgrwt>
<rscale>  1 0.30000000E+03</rscale>
<asrwt>0</asrwt>
<pdfrwt beam="1">  1       21 0.11714371E-01 0.30000000E+03</pdfrwt>
<pdfrwt beam="2">0</pdfrwt>
<totfact> 0.64736944E+03</totfact>
</mgrwt>
</event>
<event>
 6    1  0.1273846E-001  0.3000000E+03  0.7818608E-02  0.1093470E+00
         21   -1    0    0  501  502  0.00000000000E+00  0.00000000000E+00  0.12758682545E+01  0.12758682545E+01  0.00000000000E+00 0. -1.
         13   -1    0    0    0    0 -0.00000000000E+00 -0.00000000000E+00 -0.10000000000E+04  0.10000000000E+04  0.00000000000E+00 0.  1.
    9000005    2    1    2  501    0 -0.31921392323E+02  0.12579782057E+02 -0.63559226109E+03  0.63652666443E+03  0.33831891991E+01 0.  0.
         13    1    3    3    0    0 -0.38854507481E+01  0.50390257687E+00 -0.63907060801E+02  0.64027049483E+02  0.00000000000E+00 0.  1.
          3    1    3    3  501    0 -0.28035941575E+02  0.12075879480E+02 -0.57168520029E+03  0.57249961495E+03  0.00000000000E+00 0.  1.
         -1    1    1    2    0  502  0.31921392323E+02 -0.12579782057E+02 -0.36313187065E+03  0.36474920382E+03  0.00000000000E+00 0. -1.
<mgrwt>
<rscale>  1 0.30000000E+03</rscale>
<asrwt>0</asrwt>
<pdfrwt beam="1">  1       21 0.46395307E-02 0.30000000E+03</pdfrwt>
<pdfrwt beam="2">0</pdfrwt>
<totfact> 0.32716611E+04</totfact>
</mgrwt>
</event>
<event>
 6    1  0.1273846E-001  0.3000000E+03  0.7818608E-02  0.1093470E+00
         21   -1    0    0  501  502  0.00000000000E+00  0.00000000000E+00  0.36765232849E+01  0.36765232849E+01  0.00000000000E+00 0. -1.
         13   -1    0    0    0    0 -0.00000000000E+00 -0.00000000000E+00 -0.10000000000E+04  0.10000000000E+04  0.00000000000E+00 0.  1.
    9000005    2    1    2  501    0  0.13577874575E+02 -0.55469571325E+02 -0.66587572453E+03  0.66833050952E+03  0.37359632817E+01 0.  0.
         13    1    3    3    0    0  0.12808975099E+02 -0.52918077764E+02 -0.62441914814E+03  0.62678837366E+03  0.00000000000E+00 0.  1.
          3    1    3    3  501    0  0.76889947656E+00 -0.25514935613E+01 -0.41456576393E+02  0.41542135863E+02  0.00000000000E+00 0.  1.
         -3    1    1    2    0  502 -0.13577874575E+02  0.55469571325E+02 -0.33044775219E+03  0.33534601376E+03  0.00000000000E+00 0. -1.
<mgrwt>
<rscale>  1 0.30000000E+03</rscale>
<asrwt>0</asrwt>
<pdfrwt beam="1">  1       21 0.13369204E-01 0.30000000E+03</pdfrwt>
<pdfrwt beam="2">0</pdfrwt>
<totfact> 0.50892063E+03</totfact>
</mgrwt>
</event>
<event>
 6    1  0.1273846E-001  0.3000000E+03  0.7818608E-02  0.1093470E+00
         21   -1    0    0  501  502  0.00000000000E+00  0.00000000000E+00  0.46078991203E+01  0.46078991203E+01  0.00000000000E+00 0. -1.
         13   -1    0    0    0    0 -0.00000000000E+00 -0.00000000000E+00 -0.10000000000E+04  0.10000000000E+04  0.00000000000E+00 0.  1.
    9000005    2    1    2  501    0  0.30041498749E+02  0.13067962677E+02 -0.93758700643E+03  0.93816474868E+03  0.32307509192E+01 0.  0.
         13    1    3    3    0    0  0.96141159543E+01  0.44189952309E+01 -0.26172282081E+03  0.26193662149E+03  0.00000000000E+00 0.  1.
          3    1    3    3  501    0  0.20427382795E+02  0.86489674465E+01 -0.67586418562E+03  0.67622812719E+03  0.00000000000E+00 0.  1.
         -3    1    1    2    0  502 -0.30041498749E+02 -0.13067962677E+02 -0.57805094454E+02  0.66443150441E+02  0.00000000000E+00 0. -1.
<mgrwt>
<rscale>  1 0.30000000E+03</rscale>
<asrwt>0</asrwt>
<pdfrwt beam="1">  1       21 0.16756032E-01 0.30000000E+03</pdfrwt>
<pdfrwt beam="2">0</pdfrwt>
<totfact> 0.33509711E+03</totfact>
</mgrwt>
</event>
<event>
 6    1  0.1273846E-001  0.3000000E+03  0.7818608E-02  0.1093470E+00
         21   -1    0    0  501  502  0.00000000000E+00  0.00000000000E+00  0.66819343471E+01  0.66819343471E+01  0.00000000000E+00 0. -1.
         13   -1    0    0    0    0 -0.00000000000E+00 -0.00000000000E+00 -0.10000000000E+04  0.10000000000E+04  0.00000000000E+00 0.  1.
    9000005    2    1    2  501    0  0.18501941949E+02 -0.26871305859E+02 -0.95815139842E+03  0.95871232502E+03  0.32910364782E+01 0.  0.
         13    1    3    3    0    0  0.32575287470E+00 -0.42774727166E+00 -0.73573072639E+01  0.73769270594E+01  0.00000000000E+00 0.  1.
          1    1    3    3  501    0  0.18176189074E+02 -0.26443558587E+02 -0.95079409116E+03  0.95133539797E+03  0.00000000000E+00 0.  1.
         -3    1    1    2    0  502 -0.18501941949E+02  0.26871305859E+02 -0.35166667231E+02  0.47969609323E+02  0.00000000000E+00 0. -1.
<mgrwt>
<rscale>  1 0.30000000E+03</rscale>
<asrwt>0</asrwt>
<pdfrwt beam="1">  1       21 0.24297994E-01 0.30000000E+03</pdfrwt>
<pdfrwt beam="2">0</pdfrwt>
<totfact> 0.16488098E+03</totfact>
</mgrwt>
</event>
<event>
 6    1  0.1273846E-001  0.3000000E+03  0.7818608E-02  0.1093470E+00
         21   -1    0    0  501  502  0.00000000000E+00  0.00000000000E+00  0.28496728192E+01  0.28496728192E+01  0.00000000000E+00 0. -1.
         13   -1    0    0    0    0 -0.00000000000E+00 -0.00000000000E+00 -0.10000000000E+04  0.10000000000E+04  0.00000000000E+00 0.  1.
    9000005    2    1    2  501    0 -0.50325520294E+02 -0.17679923606E+02 -0.50118445857E+03  0.50402367057E+03  0.29599480815E+01 0.  0.
         13    1    3    3    0    0 -0.94870616763E+01 -0.27573239081E+01 -0.10274010262E+03  0.10321402938E+03  0.00000000000E+00 0.  1.
          3    1    3    3  501    0 -0.40838458618E+02 -0.14922599698E+02 -0.39844435595E+03  0.40080964119E+03  0.00000000000E+00 0.  1.
         -1    1    1    2    0  502  0.50325520294E+02  0.17679923606E+02 -0.49596586861E+03  0.49882600225E+03  0.00000000000E+00 0. -1.
<mgrwt>
<rscale>  1 0.30000000E+03</rscale>
<asrwt>0</asrwt>
<pdfrwt beam="1">  1       21 0.10362468E-01 0.30000000E+03</pdfrwt>
<pdfrwt beam="2">0</pdfrwt>
<totfact> 0.80723308E+03</totfact>
</mgrwt>
</event>
<event>
 6    1  0.1273846E-001  0.3000000E+03  0.7818608E-02  0.1093470E+00
         21   -1    0    0  501  502  0.00000000000E+00  0.00000000000E+00  0.17754524812E+01  0.17754524812E+01  0.00000000000E+00 0. -1.
         13   -1    0    0    0    0 -0.00000000000E+00 -0.00000000000E+00 -0.10000000000E+04  0.10000000000E+04  0.00000000000E+00 0.  1.
    9000005    2    1    2  501    0 -0.12800652438E+02  0.39585445091E+02 -0.57378971090E+03  0.57530646803E+03  0.34692438420E+01 0.  0.
         13    1    3    3    0    0 -0.28055470531E+01  0.11542043733E+02 -0.18206923882E+03  0.18245628954E+03  0.00000000000E+00 0.  1.
          3    1    3    3  501    0 -0.99951053846E+01  0.28043401359E+02 -0.39172047208E+03  0.39285017848E+03  0.00000000000E+00 0.  1.
         -1    1    1    2    0  502  0.12800652438E+02 -0.39585445091E+02 -0.42443483662E+03  0.42646898445E+03  0.00000000000E+00 0. -1.
<mgrwt>
<rscale>  1 0.30000000E+03</rscale>
<asrwt>0</asrwt>
<pdfrwt beam="1">  1       21 0.64562045E-02 0.30000000E+03</pdfrwt>
<pdfrwt beam="2">0</pdfrwt>
<totfact> 0.18566056E+04</totfact>
</mgrwt>
</event>
<event>
 6    1  0.1273846E-001  0.3000000E+03  0.7818608E-02  0.1093470E+00
         21   -1    0    0  501  502  0.00000000000E+00  0.00000000000E+00  0.14124997424E+01  0.14124997424E+01  0.00000000000E+00 0. -1.
         13   -1    0    0    0    0 -0.00000000000E+00 -0.00000000000E+00 -0.10000000000E+04  0.10000000000E+04  0.00000000000E+00 0.  1.
    9000005    2    1    2  501    0 -0.17118169957E+02  0.25325522141E+02 -0.78675640918E+03  0.78738720927E+03  0.76521972484E+01 0.  0.
         13    1    3    3    0    0 -0.11013375080E+02  0.95729478440E+01 -0.34904018728E+03  0.34934508455E+03  0.00000000000E+00 0.  1.
          1    1    3    3  501    0 -0.61047948778E+01  0.15752574297E+02 -0.43771622189E+03  0.43804212472E+03  0.00000000000E+00 0.  1.
         -3    1    1    2    0  502  0.17118169957E+02 -0.25325522141E+02 -0.21183109108E+03  0.21402529047E+03  0.00000000000E+00 0. -1.
<mgrwt>
<rscale>  1 0.30000000E+03</rscale>
<asrwt>0</asrwt>
<pdfrwt beam="1">  1       21 0.51363735E-02 0.30000000E+03</pdfrwt>
<pdfrwt beam="2">0</pdfrwt>
<totfact> 0.27512274E+04</totfact>
</mgrwt>
</event>
<event>
 6    1  0.1273846E-001  0.3000000E+03  0.7818608E-02  0.1093470E+00
         21   -1    0    0  501  502  0.00000000000E+00  0.00000000000E+00  0.38403202366E+01  0.38403202366E+01  0.00000000000E+00 0. -1.
         13   -1    0    0    0    0 -0.00000000000E+00 -0.00000000000E+00 -0.10000000000E+04  0.10000000000E+04  0.00000000000E+00 0.  1.
    9000005    2    1    2  501    0 -0.82354211427E+01 -0.36109878322E+02 -0.90042204611E+03  0.90118828679E+03  0.29532433922E+01 0.  0.
         13    1    3    3    0    0 -0.59005749237E+01 -0.21015819341E+02 -0.50593180270E+03  0.50640247870E+03  0.00000000000E+00 0.  1.
          3    1    3    3  501    0 -0.23348462190E+01 -0.15094058982E+02 -0.39449024341E+03  0.39478580809E+03  0.00000000000E+00 0.  1.
         -3    1    1    2    0  502  0.82354211427E+01  0.36109878322E+02 -0.95737633652E+02  0.10265203345E+03  0.00000000000E+00 0. -1.
<mgrwt>
<rscale>  1 0.30000000E+03</rscale>
<asrwt>0</asrwt>
<pdfrwt beam="1">  1       21 0.13964830E-01 0.30000000E+03</pdfrwt>
<pdfrwt beam="2">0</pdfrwt>
<totfact> 0.46983373E+03</totfact>
</mgrwt>
</event>
<event>
 6    1  0.1273846E-001  0.3000000E+03  0.7818608E-02  0.1093470E+00
         21   -1    0    0  501  502  0.00000000000E+00  0.00000000000E+00  0.35671087914E+01  0.35671087914E+01  0.00000000000E+00 0. -1.
         13   -1    0    0    0    0 -0.00000000000E+00 -0.00000000000E+00 -0.10000000000E+04  0.10000000000E+04  0.00000000000E+00 0.  1.
    9000005    2    1    2  501    0 -0.21197380963E+02 -0.53978628609E+02 -0.61690662602E+03  0.61963585548E+03  0.34331989087E+01 0.  0.
         13    1    3    3    0    0 -0.19498738068E+02 -0.49632273560E+02 -0.55635913087E+03  0.55890879924E+03  0.00000000000E+00 0.  1.
          3    1    3    3  501    0 -0.16986428951E+01 -0.43463550494E+01 -0.60547495154E+02  0.60727056238E+02  0.00000000000E+00 0.  1.
         -3    1    1    2    0  502  0.21197380963E+02  0.53978628609E+02 -0.37952626518E+03  0.38393125331E+03  0.00000000000E+00 0. -1.
<mgrwt>
<rscale>  1 0.30000000E+03</rscale>
<asrwt>0</asrwt>
<pdfrwt beam="1">  1       21 0.12971332E-01 0.30000000E+03</pdfrwt>
<pdfrwt beam="2">0</pdfrwt>
<totfact> 0.53781610E+03</totfact>
</mgrwt>
</event>
<event>
 6    1  0.1273846E-001  0.3000000E+03  0.7818608E-02  0.1093470E+00
         21   -1    0    0  501  502  0.00000000000E+00  0.00000000000E+00  0.11481745252E+01  0.11481745252E+01  0.00000000000E+00 0. -1.
         13   -1    0    0    0    0 -0.00000000000E+00 -0.00000000000E+00 -0.10000000000E+04  0.10000000000E+04  0.00000000000E+00 0.  1.
    9000005    2    1    2  501    0  0.17410761421E+02 -0.25671575599E+02 -0.69845650611E+03  0.69915560458E+03  0.38605800677E+01 0.  0.
         13    1    3    3    0    0  0.13243525248E+01 -0.56789389274E+00 -0.33697801621E+02  0.33728596875E+02  0.00000000000E+00 0.  1.
          1    1    3    3  501    0  0.16086408897E+02 -0.25103681706E+02 -0.66475870449E+03  0.66542700771E+03  0.00000000000E+00 0.  1.
         -3    1    1    2    0  502 -0.17410761421E+02  0.25671575599E+02 -0.30039531936E+03  0.30199256994E+03  0.00000000000E+00 0. -1.
<mgrwt>
<rscale>  1 0.30000000E+03</rscale>
<asrwt>0</asrwt>
<pdfrwt beam="1">  1       21 0.41751889E-02 0.30000000E+03</pdfrwt>
<pdfrwt beam="2">0</pdfrwt>
<totfact> 0.39115792E+04</totfact>
</mgrwt>
</event>
<event>
 6    1  0.1273846E-001  0.3000000E+03  0.7818608E-02  0.1093470E+00
         21   -1    0    0  501  502  0.00000000000E+00  0.00000000000E+00  0.24700440341E+01  0.24700440341E+01  0.00000000000E+00 0. -1.
         13   -1    0    0    0    0 -0.00000000000E+00 -0.00000000000E+00 -0.10000000000E+04  0.10000000000E+04  0.00000000000E+00 0.  1.
    9000005    2    1    2  501    0  0.27266615959E+02 -0.28421530851E+02 -0.80397911664E+03  0.80495250262E+03  0.38548310328E+01 0.  0.
         13    1    3    3    0    0  0.22976711867E+02 -0.23997109703E+02 -0.64696360762E+03  0.64781610056E+03  0.00000000000E+00 0.  1.
          1    1    3    3  501    0  0.42899040912E+01 -0.44244211484E+01 -0.15701550902E+03  0.15713640206E+03  0.00000000000E+00 0.  1.
         -3    1    1    2    0  502 -0.27266615959E+02  0.28421530851E+02 -0.19355083933E+03  0.19751754142E+03  0.00000000000E+00 0. -1.
<mgrwt>
<rscale>  1 0.30000000E+03</rscale>
<asrwt>0</asrwt>
<pdfrwt beam="1">  1       21 0.89819972E-02 0.30000000E+03</pdfrwt>
<pdfrwt beam="2">0</pdfrwt>
<totfact> 0.10414967E+04</totfact>
</mgrwt>
</event>
<event>
 6    1  0.1273846E-001  0.3000000E+03  0.7818608E-02  0.1093470E+00
         21   -1    0    0  501  502  0.00000000000E+00  0.00000000000E+00  0.11686797312E+01  0.11686797312E+01  0.00000000000E+00 0. -1.
         13   -1    0    0    0    0 -0.00000000000E+00 -0.00000000000E+00 -0.10000000000E+04  0.10000000000E+04  0.00000000000E+00 0.  1.
    9000005    2    1    2  501    0 -0.12508607195E+02 -0.31734899129E+02 -0.51150858051E+03  0.51265356046E+03  0.30126456437E+01 0.  0.
         13    1    3    3    0    0 -0.61462187724E+01 -0.16124276447E+02 -0.23635989391E+03  0.23698896123E+03  0.00000000000E+00 0.  1.
          3    1    3    3  501    0 -0.63623884231E+01 -0.15610622682E+02 -0.27514868660E+03  0.27566459923E+03  0.00000000000E+00 0.  1.
         -3    1    1    2    0  502  0.12508607195E+02  0.31734899129E+02 -0.48732273976E+03  0.48851511928E+03  0.00000000000E+00 0. -1.
<mgrwt>
<rscale>  1 0.30000000E+03</rscale>
<asrwt>0</asrwt>
<pdfrwt beam="1">  1       21 0.42497534E-02 0.30000000E+03</pdfrwt>
<pdfrwt beam="2">0</pdfrwt>
<totfact> 0.37963666E+04</totfact>
</mgrwt>
</event>
<event>
 6    1  0.1273846E-001  0.3000000E+03  0.7818608E-02  0.1093470E+00
         21   -1    0    0  501  502  0.00000000000E+00  0.00000000000E+00  0.16705405951E+01  0.16705405951E+01  0.00000000000E+00 0. -1.
         13   -1    0    0    0    0 -0.00000000000E+00 -0.00000000000E+00 -0.10000000000E+04  0.10000000000E+04  0.00000000000E+00 0.  1.
    9000005    2    1    2  501    0 -0.30435534658E+02  0.22319994517E+02 -0.67506583030E+03  0.67621105337E+03  0.11090966184E+02 0.  0.
         13    1    3    3    0    0 -0.11363460478E+02  0.24148140633E+01 -0.17390354064E+03  0.17429113864E+03  0.00000000000E+00 0.  1.
          1    1    3    3  501    0 -0.19072074180E+02  0.19905180454E+02 -0.50116228966E+03  0.50191991472E+03  0.00000000000E+00 0.  1.
         -1    1    1    2    0  502  0.30435534658E+02 -0.22319994517E+02 -0.32326362910E+03  0.32545948723E+03  0.00000000000E+00 0. -1.
<mgrwt>
<rscale>  1 0.30000000E+03</rscale>
<asrwt>0</asrwt>
<pdfrwt beam="1">  1       21 0.60747059E-02 0.30000000E+03</pdfrwt>
<pdfrwt beam="2">0</pdfrwt>
<totfact> 0.20626631E+04</totfact>
</mgrwt>
</event>
<event>
 6    1  0.1273846E-001  0.3000000E+03  0.7818608E-02  0.1093470E+00
         21   -1    0    0  501  502  0.00000000000E+00  0.00000000000E+00  0.43870874778E+01  0.43870874778E+01  0.00000000000E+00 0. -1.
         13   -1    0    0    0    0 -0.00000000000E+00 -0.00000000000E+00 -0.10000000000E+04  0.10000000000E+04  0.00000000000E+00 0.  1.
    9000005    2    1    2  501    0  0.58537972371E+02  0.36124941044E+01 -0.73070632621E+03  0.73306579492E+03  0.37390102059E+01 0.  0.
         13    1    3    3    0    0  0.56927667345E+02  0.40524433820E+01 -0.71335000066E+03  0.71562937687E+03  0.00000000000E+00 0.  1.
          3    1    3    3  501    0  0.16103050256E+01 -0.43994927759E+00 -0.17356325555E+02  0.17436418050E+02  0.00000000000E+00 0.  1.
         -1    1    1    2    0  502 -0.58537972371E+02 -0.36124941044E+01 -0.26490658631E+03  0.27132129256E+03  0.00000000000E+00 0. -1.
<mgrwt>
<rscale>  1 0.30000000E+03</rscale>
<asrwt>0</asrwt>
<pdfrwt beam="1">  1       21 0.15953079E-01 0.30000000E+03</pdfrwt>
<pdfrwt beam="2">0</pdfrwt>
<totfact> 0.36727121E+03</totfact>
</mgrwt>
</event>
<event>
 6    1  0.1273846E-001  0.3000000E+03  0.7818608E-02  0.1093470E+00
         21   -1    0    0  501  502  0.00000000000E+00  0.00000000000E+00  0.12719162535E+01  0.12719162535E+01  0.00000000000E+00 0. -1.
         13   -1    0    0    0    0 -0.00000000000E+00 -0.00000000000E+00 -0.10000000000E+04  0.10000000000E+04  0.00000000000E+00 0.  1.
    9000005    2    1    2  501    0 -0.92400857209E+01  0.29544347798E+02 -0.74621361645E+03  0.74686711310E+03  0.41803817704E+01 0.  0.
         13    1    3    3    0    0 -0.74595048991E+01  0.20256586194E+02 -0.47887212169E+03  0.47935840707E+03  0.00000000000E+00 0.  1.
          1    1    3    3  501    0 -0.17805808218E+01  0.92877616033E+01 -0.26734149476E+03  0.26750870604E+03  0.00000000000E+00 0.  1.
         -3    1    1    2    0  502  0.92400857209E+01 -0.29544347798E+02 -0.25251446730E+03  0.25440480315E+03  0.00000000000E+00 0. -1.
<mgrwt>
<rscale>  1 0.30000000E+03</rscale>
<asrwt>0</asrwt>
<pdfrwt beam="1">  1       21 0.46251598E-02 0.30000000E+03</pdfrwt>
<pdfrwt beam="2">0</pdfrwt>
<totfact> 0.32889546E+04</totfact>
</mgrwt>
</event>
<event>
 6    1  0.1273846E-001  0.3000000E+03  0.7818608E-02  0.1093470E+00
         21   -1    0    0  501  502  0.00000000000E+00  0.00000000000E+00  0.42193996108E+01  0.42193996108E+01  0.00000000000E+00 0. -1.
         13   -1    0    0    0    0 -0.00000000000E+00 -0.00000000000E+00 -0.10000000000E+04  0.10000000000E+04  0.00000000000E+00 0.  1.
    9000005    2    1    2  501    0  0.56726211522E+02 -0.51229347821E+00 -0.74221613696E+03  0.74438664064E+03  0.29242583912E+01 0.  0.
         13    1    3    3    0    0  0.31082449351E+02 -0.48457623549E+00 -0.38773388200E+03  0.38897804144E+03  0.00000000000E+00 0.  1.
          1    1    3    3  501    0  0.25643762171E+02 -0.27717242719E-01 -0.35448225496E+03  0.35540859920E+03  0.00000000000E+00 0.  1.
         -1    1    1    2    0  502 -0.56726211522E+02  0.51229347821E+00 -0.25356446343E+03  0.25983275897E+03  0.00000000000E+00 0. -1.
<mgrwt>
<rscale>  1 0.30000000E+03</rscale>
<asrwt>0</asrwt>
<pdfrwt beam="1">  1       21 0.15343304E-01 0.30000000E+03</pdfrwt>
<pdfrwt beam="2">0</pdfrwt>
<totfact> 0.39488896E+03</totfact>
</mgrwt>
</event>
<event>
 6    1  0.1273846E-001  0.3000000E+03  0.7818608E-02  0.1093470E+00
         21   -1    0    0  501  502  0.00000000000E+00  0.00000000000E+00  0.12857022531E+01  0.12857022531E+01  0.00000000000E+00 0. -1.
         13   -1    0    0    0    0 -0.00000000000E+00 -0.00000000000E+00 -0.10000000000E+04  0.10000000000E+04  0.00000000000E+00 0.  1.
    9000005    2    1    2  501    0 -0.33347514274E+02 -0.75972557442E+01 -0.64244103305E+03  0.64337452034E+03  0.55242618372E+01 0.  0.
         13    1    3    3    0    0 -0.32384245382E+02 -0.76720114661E+01 -0.63492688060E+03  0.63579850804E+03  0.00000000000E+00 0.  1.
          3    1    3    3  501    0 -0.96326889266E+00  0.74755721847E-01 -0.75141524444E+01  0.75760122977E+01  0.00000000000E+00 0.  1.
         -3    1    1    2    0  502  0.33347514274E+02  0.75972557442E+01 -0.35627326470E+03  0.35791118192E+03  0.00000000000E+00 0. -1.
<mgrwt>
<rscale>  1 0.30000000E+03</rscale>
<asrwt>0</asrwt>
<pdfrwt beam="1">  1       21 0.46752908E-02 0.30000000E+03</pdfrwt>
<pdfrwt beam="2">0</pdfrwt>
<totfact> 0.32292422E+04</totfact>
</mgrwt>
</event>
<event>
 6    1  0.1273846E-001  0.3000000E+03  0.7818608E-02  0.1093470E+00
         21   -1    0    0  501  502  0.00000000000E+00  0.00000000000E+00  0.24559555384E+01  0.24559555384E+01  0.00000000000E+00 0. -1.
         13   -1    0    0    0    0 -0.00000000000E+00 -0.00000000000E+00 -0.10000000000E+04  0.10000000000E+04  0.00000000000E+00 0.  1.
    9000005    2    1    2  501    0  0.26182266755E+02  0.23872070830E+02 -0.84734344837E+03  0.84813289853E+03  0.91163158778E+01 0.  0.
         13    1    3    3    0    0  0.12389817448E+02  0.53733411408E+01 -0.30541892279E+03  0.30571735111E+03  0.00000000000E+00 0.  1.
          1    1    3    3  501    0  0.13792449307E+02  0.18498729689E+02 -0.54192452558E+03  0.54241554742E+03  0.00000000000E+00 0.  1.
         -1    1    1    2    0  502 -0.26182266755E+02 -0.23872070830E+02 -0.15020059609E+03  0.15432305701E+03  0.00000000000E+00 0. -1.
<mgrwt>
<rscale>  1 0.30000000E+03</rscale>
<asrwt>0</asrwt>
<pdfrwt beam="1">  1       21 0.89307662E-02 0.30000000E+03</pdfrwt>
<pdfrwt beam="2">0</pdfrwt>
<totfact> 0.10521002E+04</totfact>
</mgrwt>
</event>
<event>
 6    1  0.1273846E-001  0.3000000E+03  0.7818608E-02  0.1093470E+00
         21   -1    0    0  501  502  0.00000000000E+00  0.00000000000E+00  0.17160380688E+01  0.17160380688E+01  0.00000000000E+00 0. -1.
         13   -1    0    0    0    0 -0.00000000000E+00 -0.00000000000E+00 -0.10000000000E+04  0.10000000000E+04  0.00000000000E+00 0.  1.
    9000005    2    1    2  501    0  0.36879062735E+02  0.13400102604E+02 -0.65690914661E+03  0.65809358165E+03  0.42317010893E+01 0.  0.
         13    1    3    3    0    0  0.79395139937E+01  0.46543410787E+01 -0.16446996503E+03  0.16472725388E+03  0.00000000000E+00 0.  1.
          3    1    3    3  501    0  0.28939548741E+02  0.87457615256E+01 -0.49243918158E+03  0.49336632777E+03  0.00000000000E+00 0.  1.
         -3    1    1    2    0  502 -0.36879062735E+02 -0.13400102604E+02 -0.34137481532E+03  0.34362245642E+03  0.00000000000E+00 0. -1.
<mgrwt>
<rscale>  1 0.30000000E+03</rscale>
<asrwt>0</asrwt>
<pdfrwt beam="1">  1       21 0.62401516E-02 0.30000000E+03</pdfrwt>
<pdfrwt beam="2">0</pdfrwt>
<totfact> 0.19691544E+04</totfact>
</mgrwt>
</event>
<event>
 6    1  0.1273846E-001  0.3000000E+03  0.7818608E-02  0.1093470E+00
         21   -1    0    0  501  502  0.00000000000E+00  0.00000000000E+00  0.27384184539E+01  0.27384184539E+01  0.00000000000E+00 0. -1.
         13   -1    0    0    0    0 -0.00000000000E+00 -0.00000000000E+00 -0.10000000000E+04  0.10000000000E+04  0.00000000000E+00 0.  1.
    9000005    2    1    2  501    0  0.36724753158E+02 -0.43766367633E+01 -0.85310473761E+03  0.85391282221E+03  0.33988465061E+01 0.  0.
         13    1    3    3    0    0  0.54753690619E+01 -0.16388561517E+01 -0.11541830213E+03  0.11555972474E+03  0.00000000000E+00 0.  1.
          3    1    3    3  501    0  0.31249384096E+02 -0.27377806116E+01 -0.73768643548E+03  0.73835309747E+03  0.00000000000E+00 0.  1.
         -1    1    1    2    0  502 -0.36724753158E+02  0.43766367633E+01 -0.14415684394E+03  0.14882559625E+03  0.00000000000E+00 0. -1.
<mgrwt>
<rscale>  1 0.30000000E+03</rscale>
<asrwt>0</asrwt>
<pdfrwt beam="1">  1       21 0.99579063E-02 0.30000000E+03</pdfrwt>
<pdfrwt beam="2">0</pdfrwt>
<totfact> 0.86682796E+03</totfact>
</mgrwt>
</event>
<event>
 6    1  0.1273846E-001  0.3000000E+03  0.7818608E-02  0.1093470E+00
         21   -1    0    0  501  502  0.00000000000E+00  0.00000000000E+00  0.15411014392E+01  0.15411014392E+01  0.00000000000E+00 0. -1.
         13   -1    0    0    0    0 -0.00000000000E+00 -0.00000000000E+00 -0.10000000000E+04  0.10000000000E+04  0.00000000000E+00 0.  1.
    9000005    2    1    2  501    0 -0.33699873148E+02 -0.10805843366E+02 -0.71415123424E+03  0.71503927650E+03  0.40907056268E+01 0.  0.
         13    1    3    3    0    0 -0.10737792904E+02 -0.49600154759E+01 -0.26410018688E+03  0.26436491949E+03  0.00000000000E+00 0.  1.
          3    1    3    3  501    0 -0.22962080244E+02 -0.58458278905E+01 -0.45005104736E+03  0.45067435701E+03  0.00000000000E+00 0.  1.
         -3    1    1    2    0  502  0.33699873148E+02  0.10805843366E+02 -0.28430766432E+03  0.28650182494E+03  0.00000000000E+00 0. -1.
<mgrwt>
<rscale>  1 0.30000000E+03</rscale>
<asrwt>0</asrwt>
<pdfrwt beam="1">  1       21 0.56040171E-02 0.30000000E+03</pdfrwt>
<pdfrwt beam="2">0</pdfrwt>
<totfact> 0.23699862E+04</totfact>
</mgrwt>
</event>
<event>
 6    1  0.1273846E-001  0.3000000E+03  0.7818608E-02  0.1093470E+00
         21   -1    0    0  501  502  0.00000000000E+00  0.00000000000E+00  0.20869548159E+01  0.20869548159E+01  0.00000000000E+00 0. -1.
         13   -1    0    0    0    0 -0.00000000000E+00 -0.00000000000E+00 -0.10000000000E+04  0.10000000000E+04  0.00000000000E+00 0.  1.
    9000005    2    1    2  501    0 -0.39415856801E+02  0.10531177601E+02 -0.72360773185E+03  0.72476418187E+03  0.32333055515E+01 0.  0.
         13    1    3    3    0    0 -0.18118105152E+02  0.34870104714E+01 -0.31004626981E+03  0.31059477523E+03  0.00000000000E+00 0.  1.
          3    1    3    3  501    0 -0.21297751649E+02  0.70441671301E+01 -0.41356146204E+03  0.41416940664E+03  0.00000000000E+00 0.  1.
         -3    1    1    2    0  502  0.39415856801E+02 -0.10531177601E+02 -0.27430531334E+03  0.27732277295E+03  0.00000000000E+00 0. -1.
<mgrwt>
<rscale>  1 0.30000000E+03</rscale>
<asrwt>0</asrwt>
<pdfrwt beam="1">  1       21 0.75889426E-02 0.30000000E+03</pdfrwt>
<pdfrwt beam="2">0</pdfrwt>
<totfact> 0.14012151E+04</totfact>
</mgrwt>
</event>
<event>
 6    1  0.1273846E-001  0.3000000E+03  0.7818608E-02  0.1093470E+00
         21   -1    0    0  501  502  0.00000000000E+00  0.00000000000E+00  0.11231021128E+01  0.11231021128E+01  0.00000000000E+00 0. -1.
         13   -1    0    0    0    0 -0.00000000000E+00 -0.00000000000E+00 -0.10000000000E+04  0.10000000000E+04  0.00000000000E+00 0.  1.
    9000005    2    1    2  501    0 -0.93721122548E+01  0.31717212064E+02 -0.57258435109E+03  0.57354953712E+03  0.35234050972E+01 0.  0.
         13    1    3    3    0    0 -0.15966381439E+01  0.10472510831E+02 -0.19657696010E+03  0.19686219540E+03  0.00000000000E+00 0.  1.
          1    1    3    3  501    0 -0.77754741109E+01  0.21244701234E+02 -0.37600739099E+03  0.37668734172E+03  0.00000000000E+00 0.  1.
         -3    1    1    2    0  502  0.93721122548E+01 -0.31717212064E+02 -0.42629254679E+03  0.42757356499E+03  0.00000000000E+00 0. -1.
<mgrwt>
<rscale>  1 0.30000000E+03</rscale>
<asrwt>0</asrwt>
<pdfrwt beam="1">  1       21 0.40840163E-02 0.30000000E+03</pdfrwt>
<pdfrwt beam="2">0</pdfrwt>
<totfact> 0.40600145E+04</totfact>
</mgrwt>
</event>
<event>
 6    1  0.1273846E-001  0.3000000E+03  0.7818608E-02  0.1093470E+00
         21   -1    0    0  501  502  0.00000000000E+00  0.00000000000E+00  0.12764272934E+01  0.12764272934E+01  0.00000000000E+00 0. -1.
         13   -1    0    0    0    0 -0.00000000000E+00 -0.00000000000E+00 -0.10000000000E+04  0.10000000000E+04  0.00000000000E+00 0.  1.
    9000005    2    1    2  501    0  0.31640719118E+02  0.23050089238E+01 -0.27150031968E+03  0.27336152299E+03  0.27659518440E+01 0.  0.
         13    1    3    3    0    0  0.54029214123E+01  0.53538613417E+00 -0.56007301589E+02  0.56269850092E+02  0.00000000000E+00 0.  1.
          1    1    3    3  501    0  0.26237797706E+02  0.17696227896E+01 -0.21549301809E+03  0.21709167290E+03  0.00000000000E+00 0.  1.
         -3    1    1    2    0  502 -0.31640719118E+02 -0.23050089238E+01 -0.72722325302E+03  0.72791490431E+03  0.00000000000E+00 0. -1.
<mgrwt>
<rscale>  1 0.30000000E+03</rscale>
<asrwt>0</asrwt>
<pdfrwt beam="1">  1       21 0.46415636E-02 0.30000000E+03</pdfrwt>
<pdfrwt beam="2">0</pdfrwt>
<totfact> 0.32692263E+04</totfact>
</mgrwt>
</event>
<event>
 6    1  0.1273846E-001  0.3000000E+03  0.7818608E-02  0.1093470E+00
         21   -1    0    0  501  502  0.00000000000E+00  0.00000000000E+00  0.63544060710E+01  0.63544060710E+01  0.00000000000E+00 0. -1.
         13   -1    0    0    0    0 -0.00000000000E+00 -0.00000000000E+00 -0.10000000000E+04  0.10000000000E+04  0.00000000000E+00 0.  1.
    9000005    2    1    2  501    0  0.36675432932E+02 -0.34670971371E+02 -0.88616885593E+03  0.88761766850E+03  0.47666117988E+01 0.  0.
         13    1    3    3    0    0  0.80940491081E+01 -0.10374678420E+02 -0.21865956655E+03  0.21905513833E+03  0.00000000000E+00 0.  1.
          1    1    3    3  501    0  0.28581383824E+02 -0.24296292951E+02 -0.66750928938E+03  0.66856253018E+03  0.00000000000E+00 0.  1.
         -3    1    1    2    0  502 -0.36675432932E+02  0.34670971371E+02 -0.10747673800E+03  0.11873673757E+03  0.00000000000E+00 0. -1.
<mgrwt>
<rscale>  1 0.30000000E+03</rscale>
<asrwt>0</asrwt>
<pdfrwt beam="1">  1       21 0.23106980E-01 0.30000000E+03</pdfrwt>
<pdfrwt beam="2">0</pdfrwt>
<totfact> 0.18178770E+03</totfact>
</mgrwt>
</event>
<event>
 6    1  0.1273846E-001  0.3000000E+03  0.7818608E-02  0.1093470E+00
         21   -1    0    0  501  502  0.00000000000E+00  0.00000000000E+00  0.90799553211E+00  0.90799553211E+00  0.00000000000E+00 0. -1.
         13   -1    0    0    0    0 -0.00000000000E+00 -0.00000000000E+00 -0.10000000000E+04  0.10000000000E+04  0.00000000000E+00 0.  1.
    9000005    2    1    2  501    0 -0.25088477229E+02  0.16491907498E+02 -0.52163168029E+03  0.52250463448E+03  0.31730848619E+01 0.  0.
         13    1    3    3    0    0 -0.13962122053E+02  0.10728479998E+02 -0.28944960387E+03  0.28998467945E+03  0.00000000000E+00 0.  1.
          1    1    3    3  501    0 -0.11126355176E+02  0.57634275002E+01 -0.23218207641E+03  0.23251995502E+03  0.00000000000E+00 0.  1.
         -3    1    1    2    0  502  0.25088477229E+02 -0.16491907498E+02 -0.47746032418E+03  0.47840336106E+03  0.00000000000E+00 0. -1.
<mgrwt>
<rscale>  1 0.30000000E+03</rscale>
<asrwt>0</asrwt>
<pdfrwt beam="1">  1       21 0.33018089E-02 0.30000000E+03</pdfrwt>
<pdfrwt beam="2">0</pdfrwt>
<totfact> 0.58000475E+04</totfact>
</mgrwt>
</event>
<event>
 6    1  0.1273846E-001  0.3000000E+03  0.7818608E-02  0.1093470E+00
         21   -1    0    0  501  502  0.00000000000E+00  0.00000000000E+00  0.16156613061E+01  0.16156613061E+01  0.00000000000E+00 0. -1.
         13   -1    0    0    0    0 -0.00000000000E+00 -0.00000000000E+00 -0.10000000000E+04  0.10000000000E+04  0.00000000000E+00 0.  1.
    9000005    2    1    2  501    0 -0.38356503609E+02  0.59432671611E+01 -0.62786789805E+03  0.62907173560E+03  0.25704735896E+01 0.  0.
         13    1    3    3    0    0 -0.38229601240E+02  0.58566164900E+01 -0.62688378993E+03  0.62807570280E+03  0.00000000000E+00 0.  1.
          1    1    3    3  501    0 -0.12690236961E+00  0.86650671162E-01 -0.98410812015E+00  0.99603280186E+00  0.00000000000E+00 0.  1.
         -3    1    1    2    0  502  0.38356503609E+02 -0.59432671611E+01 -0.37051644064E+03  0.37254392570E+03  0.00000000000E+00 0. -1.
<mgrwt>
<rscale>  1 0.30000000E+03</rscale>
<asrwt>0</asrwt>
<pdfrwt beam="1">  1       21 0.58751444E-02 0.30000000E+03</pdfrwt>
<pdfrwt beam="2">0</pdfrwt>
<totfact> 0.21849585E+04</totfact>
</mgrwt>
</event>
<event>
 6    1  0.1273846E-001  0.3000000E+03  0.7818608E-02  0.1093470E+00
         21   -1    0    0  501  502  0.00000000000E+00  0.00000000000E+00  0.21745529945E+01  0.21745529945E+01  0.00000000000E+00 0. -1.
         13   -1    0    0    0    0 -0.00000000000E+00 -0.00000000000E+00 -0.10000000000E+04  0.10000000000E+04  0.00000000000E+00 0.  1.
    9000005    2    1    2  501    0 -0.41293218592E+02  0.10664270371E+02 -0.70064530211E+03  0.70194981204E+03  0.32928228871E+01 0.  0.
         13    1    3    3    0    0 -0.22493546590E+02  0.44700702026E+01 -0.39254024141E+03  0.39320959080E+03  0.00000000000E+00 0.  1.
          3    1    3    3  501    0 -0.18799672002E+02  0.61942001681E+01 -0.30810506070E+03  0.30874022124E+03  0.00000000000E+00 0.  1.
         -1    1    1    2    0  502  0.41293218592E+02 -0.10664270371E+02 -0.29718014489E+03  0.30022474096E+03  0.00000000000E+00 0. -1.
<mgrwt>
<rscale>  1 0.30000000E+03</rscale>
<asrwt>0</asrwt>
<pdfrwt beam="1">  1       21 0.79074821E-02 0.30000000E+03</pdfrwt>
<pdfrwt beam="2">0</pdfrwt>
<totfact> 0.13037454E+04</totfact>
</mgrwt>
</event>
<event>
 6    1  0.1273846E-001  0.3000000E+03  0.7818608E-02  0.1093470E+00
         21   -1    0    0  501  502  0.00000000000E+00  0.00000000000E+00  0.18339709684E+01  0.18339709684E+01  0.00000000000E+00 0. -1.
         13   -1    0    0    0    0 -0.00000000000E+00 -0.00000000000E+00 -0.10000000000E+04  0.10000000000E+04  0.00000000000E+00 0.  1.
    9000005    2    1    2  501    0  0.25989684034E+02 -0.31802543258E+02 -0.63873453192E+03  0.64006350984E+03  0.35537191140E+01 0.  0.
         13    1    3    3    0    0  0.20609987446E+02 -0.25627531995E+02 -0.53172650811E+03  0.53274254702E+03  0.00000000000E+00 0.  1.
          3    1    3    3  501    0  0.53796965873E+01 -0.61750112633E+01 -0.10700802382E+03  0.10732096282E+03  0.00000000000E+00 0.  1.
         -1    1    1    2    0  502 -0.25989684034E+02  0.31802543258E+02 -0.35943149711E+03  0.36177046113E+03  0.00000000000E+00 0. -1.
<mgrwt>
<rscale>  1 0.30000000E+03</rscale>
<asrwt>0</asrwt>
<pdfrwt beam="1">  1       21 0.66689994E-02 0.30000000E+03</pdfrwt>
<pdfrwt beam="2">0</pdfrwt>
<totfact> 0.17551797E+04</totfact>
</mgrwt>
</event>
<event>
 6    1  0.1273846E-001  0.3000000E+03  0.7818608E-02  0.1093470E+00
         21   -1    0    0  501  502  0.00000000000E+00  0.00000000000E+00  0.30235990614E+01  0.30235990614E+01  0.00000000000E+00 0. -1.
         13   -1    0    0    0    0 -0.00000000000E+00 -0.00000000000E+00 -0.10000000000E+04  0.10000000000E+04  0.00000000000E+00 0.  1.
    9000005    2    1    2  501    0  0.39038893448E+02 -0.13216956016E+02 -0.83025721243E+03  0.83128539438E+03  0.31056401508E+01 0.  0.
         13    1    3    3    0    0  0.22109323792E+02 -0.63866042534E+01 -0.43994232569E+03  0.44054382398E+03  0.00000000000E+00 0.  1.
          3    1    3    3  501    0  0.16929569656E+02 -0.68303517623E+01 -0.39031488674E+03  0.39074157041E+03  0.00000000000E+00 0.  1.
         -1    1    1    2    0  502 -0.39038893448E+02  0.13216956016E+02 -0.16671918851E+03  0.17173820468E+03  0.00000000000E+00 0. -1.
<mgrwt>
<rscale>  1 0.30000000E+03</rscale>
<asrwt>0</asrwt>
<pdfrwt beam="1">  1       21 0.10994929E-01 0.30000000E+03</pdfrwt>
<pdfrwt beam="2">0</pdfrwt>
<totfact> 0.72580415E+03</totfact>
</mgrwt>
</event>
<event>
 6    1  0.1273846E-001  0.3000000E+03  0.7818608E-02  0.1093470E+00
         21   -1    0    0  501  502  0.00000000000E+00  0.00000000000E+00  0.10529362943E+01  0.10529362943E+01  0.00000000000E+00 0. -1.
         13   -1    0    0    0    0 -0.00000000000E+00 -0.00000000000E+00 -0.10000000000E+04  0.10000000000E+04  0.00000000000E+00 0.  1.
    9000005    2    1    2  501    0  0.27920383939E+02  0.16307524432E+02 -0.48521313856E+03  0.48630248312E+03  0.35821878576E+01 0.  0.
         13    1    3    3    0    0  0.67901171868E+01  0.22546894114E+01 -0.10785291311E+03  0.10808996338E+03  0.00000000000E+00 0.  1.
          3    1    3    3  501    0  0.21130266753E+02  0.14052835020E+02 -0.37736022544E+03  0.37821251974E+03  0.00000000000E+00 0.  1.
         -1    1    1    2    0  502 -0.27920383939E+02 -0.16307524432E+02 -0.51373392515E+03  0.51475045317E+03  0.00000000000E+00 0. -1.
<mgrwt>
<rscale>  1 0.30000000E+03</rscale>
<asrwt>0</asrwt>
<pdfrwt beam="1">  1       21 0.38288673E-02 0.30000000E+03</pdfrwt>
<pdfrwt beam="2">0</pdfrwt>
<totfact> 0.45256866E+04</totfact>
</mgrwt>
</event>
<event>
 6    1  0.1273846E-001  0.3000000E+03  0.7818608E-02  0.1093470E+00
         21   -1    0    0  501  502  0.00000000000E+00  0.00000000000E+00  0.14448632736E+01  0.14448632736E+01  0.00000000000E+00 0. -1.
         13   -1    0    0    0    0 -0.00000000000E+00 -0.00000000000E+00 -0.10000000000E+04  0.10000000000E+04  0.00000000000E+00 0.  1.
    9000005    2    1    2  501    0 -0.25111977949E+02 -0.22166456651E+02 -0.73490962058E+03  0.73568007738E+03  0.33260480841E+01 0.  0.
         13    1    3    3    0    0 -0.16824681427E+02 -0.12765717582E+02 -0.46933436411E+03  0.46980930044E+03  0.00000000000E+00 0.  1.
          3    1    3    3  501    0 -0.82872965217E+01 -0.94007390685E+01 -0.26557525648E+03  0.26587077694E+03  0.00000000000E+00 0.  1.
         -1    1    1    2    0  502  0.25111977949E+02  0.22166456651E+02 -0.26364551614E+03  0.26576478589E+03  0.00000000000E+00 0. -1.
<mgrwt>
<rscale>  1 0.30000000E+03</rscale>
<asrwt>0</asrwt>
<pdfrwt beam="1">  1       21 0.52540593E-02 0.30000000E+03</pdfrwt>
<pdfrwt beam="2">0</pdfrwt>
<totfact> 0.26467940E+04</totfact>
</mgrwt>
</event>
<event>
 6    1  0.1273846E-001  0.3000000E+03  0.7818608E-02  0.1093470E+00
         21   -1    0    0  501  502  0.00000000000E+00  0.00000000000E+00  0.12338377241E+01  0.12338377241E+01  0.00000000000E+00 0. -1.
         13   -1    0    0    0    0 -0.00000000000E+00 -0.00000000000E+00 -0.10000000000E+04  0.10000000000E+04  0.00000000000E+00 0.  1.
    9000005    2    1    2  501    0 -0.33775208346E+02  0.50544118193E+01 -0.61302119301E+03  0.61398005389E+03  0.31955783992E+01 0.  0.
         13    1    3    3    0    0 -0.97297709835E+01  0.23258761387E+01 -0.20099817647E+03  0.20124697535E+03  0.00000000000E+00 0.  1.
          1    1    3    3  501    0 -0.24045437362E+02  0.27285356807E+01 -0.41202301654E+03  0.41273307854E+03  0.00000000000E+00 0.  1.
         -1    1    1    2    0  502  0.33775208346E+02 -0.50544118193E+01 -0.38574496927E+03  0.38725378383E+03  0.00000000000E+00 0. -1.
<mgrwt>
<rscale>  1 0.30000000E+03</rscale>
<asrwt>0</asrwt>
<pdfrwt beam="1">  1       21 0.44866921E-02 0.30000000E+03</pdfrwt>
<pdfrwt beam="2">0</pdfrwt>
<totfact> 0.34631781E+04</totfact>
</mgrwt>
</event>
<event>
 6    1  0.1273846E-001  0.3000000E+03  0.7818608E-02  0.1093470E+00
         21   -1    0    0  501  502  0.00000000000E+00  0.00000000000E+00  0.16150494647E+01  0.16150494647E+01  0.00000000000E+00 0. -1.
         13   -1    0    0    0    0 -0.00000000000E+00 -0.00000000000E+00 -0.10000000000E+04  0.10000000000E+04  0.00000000000E+00 0.  1.
    9000005    2    1    2  501    0  0.38364050642E+02 -0.55242763452E+01 -0.62888766385E+03  0.63009040307E+03  0.34502590742E+01 0.  0.
         13    1    3    3    0    0  0.31000541332E+01 -0.14139938456E+01 -0.57313555973E+02  0.57414749085E+02  0.00000000000E+00 0.  1.
          1    1    3    3  501    0  0.35263996509E+02 -0.41102824996E+01 -0.57157410788E+03  0.57267565399E+03  0.00000000000E+00 0.  1.
         -1    1    1    2    0  502 -0.38364050642E+02  0.55242763452E+01 -0.36949728668E+03  0.37152464639E+03  0.00000000000E+00 0. -1.
<mgrwt>
<rscale>  1 0.30000000E+03</rscale>
<asrwt>0</asrwt>
<pdfrwt beam="1">  1       21 0.58729195E-02 0.30000000E+03</pdfrwt>
<pdfrwt beam="2">0</pdfrwt>
<totfact> 0.21863851E+04</totfact>
</mgrwt>
</event>
<event>
 6    1  0.1273846E-001  0.3000000E+03  0.7818608E-02  0.1093470E+00
         21   -1    0    0  501  502  0.00000000000E+00  0.00000000000E+00  0.31529275422E+01  0.31529275422E+01  0.00000000000E+00 0. -1.
         13   -1    0    0    0    0 -0.00000000000E+00 -0.00000000000E+00 -0.10000000000E+04  0.10000000000E+04  0.00000000000E+00 0.  1.
    9000005    2    1    2  501    0 -0.45033478656E+02  0.86610403447E+00 -0.79747448928E+03  0.79875578652E+03  0.40596929075E+01 0.  0.
         13    1    3    3    0    0 -0.23081554561E+02  0.24533004810E+01 -0.41437026324E+03  0.41501986929E+03  0.00000000000E+00 0.  1.
          1    1    3    3  501    0 -0.21951924096E+02 -0.15871964465E+01 -0.38310422604E+03  0.38373591723E+03  0.00000000000E+00 0.  1.
         -1    1    1    2    0  502  0.45033478656E+02 -0.86610403447E+00 -0.19937258317E+03  0.20439714102E+03  0.00000000000E+00 0. -1.
<mgrwt>
<rscale>  1 0.30000000E+03</rscale>
<asrwt>0</asrwt>
<pdfrwt beam="1">  1       21 0.11465215E-01 0.30000000E+03</pdfrwt>
<pdfrwt beam="2">0</pdfrwt>
<totfact> 0.67302806E+03</totfact>
</mgrwt>
</event>
<event>
 6    1  0.1273846E-001  0.3000000E+03  0.7818608E-02  0.1093470E+00
         21   -1    0    0  501  502  0.00000000000E+00  0.00000000000E+00  0.18002437942E+01  0.18002437942E+01  0.00000000000E+00 0. -1.
         13   -1    0    0    0    0 -0.00000000000E+00 -0.00000000000E+00 -0.10000000000E+04  0.10000000000E+04  0.00000000000E+00 0.  1.
    9000005    2    1    2  501    0  0.16677504620E+02 -0.31865062527E+02 -0.76324471831E+03  0.76410844502E+03  0.50689602520E+01 0.  0.
         13    1    3    3    0    0  0.11739371125E+02 -0.24769797723E+02 -0.61684374783E+03  0.61745247991E+03  0.00000000000E+00 0.  1.
          3    1    3    3  501    0  0.49381334952E+01 -0.70952648039E+01 -0.14640097048E+03  0.14665596511E+03  0.00000000000E+00 0.  1.
         -1    1    1    2    0  502 -0.16677504620E+02  0.31865062527E+02 -0.23495503790E+03  0.23769179877E+03  0.00000000000E+00 0. -1.
<mgrwt>
<rscale>  1 0.30000000E+03</rscale>
<asrwt>0</asrwt>
<pdfrwt beam="1">  1       21 0.65463549E-02 0.30000000E+03</pdfrwt>
<pdfrwt beam="2">0</pdfrwt>
<totfact> 0.18125609E+04</totfact>
</mgrwt>
</event>
<event>
 6    1  0.1273846E-001  0.3000000E+03  0.7818608E-02  0.1093470E+00
         21   -1    0    0  501  502  0.00000000000E+00  0.00000000000E+00  0.26456615144E+01  0.26456615144E+01  0.00000000000E+00 0. -1.
         13   -1    0    0    0    0 -0.00000000000E+00 -0.00000000000E+00 -0.10000000000E+04  0.10000000000E+04  0.00000000000E+00 0.  1.
    9000005    2    1    2  501    0 -0.35776097542E+02 -0.35947191288E+02 -0.56264272343E+03  0.56498561310E+03  0.83533861737E+01 0.  0.
         13    1    3    3    0    0 -0.26547260958E+02 -0.25491258431E+02 -0.44492719253E+03  0.44644682547E+03  0.00000000000E+00 0.  1.
          1    1    3    3  501    0 -0.92288365835E+01 -0.10455932857E+02 -0.11771553090E+03  0.11853878762E+03  0.00000000000E+00 0.  1.
         -1    1    1    2    0  502  0.35776097542E+02  0.35947191288E+02 -0.43471161505E+03  0.43766004842E+03  0.00000000000E+00 0. -1.
<mgrwt>
<rscale>  1 0.30000000E+03</rscale>
<asrwt>0</asrwt>
<pdfrwt beam="1">  1       21 0.96206076E-02 0.30000000E+03</pdfrwt>
<pdfrwt beam="2">0</pdfrwt>
<totfact> 0.92181014E+03</totfact>
</mgrwt>
</event>
<event>
 6    1  0.1273846E-001  0.3000000E+03  0.7818608E-02  0.1093470E+00
         21   -1    0    0  501  502  0.00000000000E+00  0.00000000000E+00  0.10211286642E+01  0.10211286642E+01  0.00000000000E+00 0. -1.
         13   -1    0    0    0    0 -0.00000000000E+00 -0.00000000000E+00 -0.10000000000E+04  0.10000000000E+04  0.00000000000E+00 0.  1.
    9000005    2    1    2  501    0  0.29446854189E+02 -0.67873839186E+01 -0.65735388794E+03  0.65806221701E+03  0.43083251546E+01 0.  0.
         13    1    3    3    0    0  0.14215737049E+02 -0.47126228157E+01 -0.28914156562E+03  0.28952917118E+03  0.00000000000E+00 0.  1.
          3    1    3    3  501    0  0.15231117140E+02 -0.20747611029E+01 -0.36821232233E+03  0.36853304584E+03  0.00000000000E+00 0.  1.
         -3    1    1    2    0  502 -0.29446854189E+02  0.67873839186E+01 -0.34162498339E+03  0.34295891165E+03  0.00000000000E+00 0. -1.
<mgrwt>
<rscale>  1 0.30000000E+03</rscale>
<asrwt>0</asrwt>
<pdfrwt beam="1">  1       21 0.37132030E-02 0.30000000E+03</pdfrwt>
<pdfrwt beam="2">0</pdfrwt>
<totfact> 0.47649684E+04</totfact>
</mgrwt>
</event>
<event>
 6    1  0.1273846E-001  0.3000000E+03  0.7818608E-02  0.1093470E+00
         21   -1    0    0  501  502  0.00000000000E+00  0.00000000000E+00  0.26621537381E+01  0.26621537381E+01  0.00000000000E+00 0. -1.
         13   -1    0    0    0    0 -0.00000000000E+00 -0.00000000000E+00 -0.10000000000E+04  0.10000000000E+04  0.00000000000E+00 0.  1.
    9000005    2    1    2  501    0  0.54473342799E+01 -0.51020171346E+02 -0.47714632154E+03  0.47994621393E+03  0.68574611591E+01 0.  0.
         13    1    3    3    0    0  0.23914957695E+01 -0.14910827337E+02 -0.11389936118E+03  0.11489611177E+03  0.00000000000E+00 0.  1.
          1    1    3    3  501    0  0.30558385104E+01 -0.36109344010E+02 -0.36324696036E+03  0.36505010216E+03  0.00000000000E+00 0.  1.
         -1    1    1    2    0  502 -0.54473342799E+01  0.51020171346E+02 -0.52019152472E+03  0.52271593980E+03  0.00000000000E+00 0. -1.
<mgrwt>
<rscale>  1 0.30000000E+03</rscale>
<asrwt>0</asrwt>
<pdfrwt beam="1">  1       21 0.96805795E-02 0.30000000E+03</pdfrwt>
<pdfrwt beam="2">0</pdfrwt>
<totfact> 0.91165092E+03</totfact>
</mgrwt>
</event>
<event>
 6    1  0.1273846E-001  0.3000000E+03  0.7818608E-02  0.1093470E+00
         21   -1    0    0  501  502  0.00000000000E+00  0.00000000000E+00  0.10462509914E+01  0.10462509914E+01  0.00000000000E+00 0. -1.
         13   -1    0    0    0    0 -0.00000000000E+00 -0.00000000000E+00 -0.10000000000E+04  0.10000000000E+04  0.00000000000E+00 0.  1.
    9000005    2    1    2  501    0 -0.14110976646E+02 -0.27139506352E+02 -0.65859729847E+03  0.65931801703E+03  0.37647780940E+01 0.  0.
         13    1    3    3    0    0 -0.28535224600E+01 -0.91915333452E+01 -0.19842544292E+03  0.19865871054E+03  0.00000000000E+00 0.  1.
          1    1    3    3  501    0 -0.11257454186E+02 -0.17947973007E+02 -0.46017185555E+03  0.46065930649E+03  0.00000000000E+00 0.  1.
         -3    1    1    2    0  502  0.14110976646E+02  0.27139506352E+02 -0.34035645054E+03  0.34172823397E+03  0.00000000000E+00 0. -1.
<mgrwt>
<rscale>  1 0.30000000E+03</rscale>
<asrwt>0</asrwt>
<pdfrwt beam="1">  1       21 0.38045571E-02 0.30000000E+03</pdfrwt>
<pdfrwt beam="2">0</pdfrwt>
<totfact> 0.45743873E+04</totfact>
</mgrwt>
</event>
<event>
 6    1  0.1273846E-001  0.3000000E+03  0.7818608E-02  0.1093470E+00
         21   -1    0    0  501  502  0.00000000000E+00  0.00000000000E+00  0.16444451691E+01  0.16444451691E+01  0.00000000000E+00 0. -1.
         13   -1    0    0    0    0 -0.00000000000E+00 -0.00000000000E+00 -0.10000000000E+04  0.10000000000E+04  0.00000000000E+00 0.  1.
    9000005    2    1    2  501    0  0.36532912236E+02 -0.10930993346E+02 -0.66802054271E+03  0.66911570878E+03  0.32009312502E+01 0.  0.
         13    1    3    3    0    0  0.80586877415E+01 -0.37001840577E+01 -0.16460993456E+03  0.16484861044E+03  0.00000000000E+00 0.  1.
          1    1    3    3  501    0  0.28474224495E+02 -0.72308092878E+01 -0.50341060816E+03  0.50426709834E+03  0.00000000000E+00 0.  1.
         -3    1    1    2    0  502 -0.36532912236E+02  0.10930993346E+02 -0.33033501212E+03  0.33252873639E+03  0.00000000000E+00 0. -1.
<mgrwt>
<rscale>  1 0.30000000E+03</rscale>
<asrwt>0</asrwt>
<pdfrwt beam="1">  1       21 0.59798132E-02 0.30000000E+03</pdfrwt>
<pdfrwt beam="2">0</pdfrwt>
<totfact> 0.21194488E+04</totfact>
</mgrwt>
</event>
<event>
 6    1  0.1273846E-001  0.3000000E+03  0.7818608E-02  0.1093470E+00
         21   -1    0    0  501  502  0.00000000000E+00  0.00000000000E+00  0.39090625275E+01  0.39090625275E+01  0.00000000000E+00 0. -1.
         13   -1    0    0    0    0 -0.00000000000E+00 -0.00000000000E+00 -0.10000000000E+04  0.10000000000E+04  0.00000000000E+00 0.  1.
    9000005    2    1    2  501    0  0.28699693994E+02  0.25029444194E+02 -0.89605875480E+03  0.89687363343E+03  0.32979955325E+01 0.  0.
         13    1    3    3    0    0  0.25984406606E+02  0.21244588207E+02 -0.78421286373E+03  0.78493078520E+03  0.00000000000E+00 0.  1.
          3    1    3    3  501    0  0.27152873877E+01  0.37848559870E+01 -0.11184589107E+03  0.11194284823E+03  0.00000000000E+00 0.  1.
         -3    1    1    2    0  502 -0.28699693994E+02 -0.25029444194E+02 -0.10003218267E+03  0.10703542910E+03  0.00000000000E+00 0. -1.
<mgrwt>
<rscale>  1 0.30000000E+03</rscale>
<asrwt>0</asrwt>
<pdfrwt beam="1">  1       21 0.14214803E-01 0.30000000E+03</pdfrwt>
<pdfrwt beam="2">0</pdfrwt>
<totfact> 0.45475610E+03</totfact>
</mgrwt>
</event>
<event>
 6    1  0.1273846E-001  0.3000000E+03  0.7818608E-02  0.1093470E+00
         21   -1    0    0  501  502  0.00000000000E+00  0.00000000000E+00  0.14733680448E+01  0.14733680448E+01  0.00000000000E+00 0. -1.
         13   -1    0    0    0    0 -0.00000000000E+00 -0.00000000000E+00 -0.10000000000E+04  0.10000000000E+04  0.00000000000E+00 0.  1.
    9000005    2    1    2  501    0 -0.13504332463E+02 -0.33883014034E+02 -0.65315080752E+03  0.65417682942E+03  0.33047167438E+01 0.  0.
         13    1    3    3    0    0 -0.78418437357E+01 -0.16843838984E+02 -0.35493622960E+03  0.35542219474E+03  0.00000000000E+00 0.  1.
          1    1    3    3  501    0 -0.56624887275E+01 -0.17039175050E+02 -0.29821457792E+03  0.29875463469E+03  0.00000000000E+00 0.  1.
         -1    1    1    2    0  502  0.13504332463E+02  0.33883014034E+02 -0.34537582444E+03  0.34729653862E+03  0.00000000000E+00 0. -1.
<mgrwt>
<rscale>  1 0.30000000E+03</rscale>
<asrwt>0</asrwt>
<pdfrwt beam="1">  1       21 0.53577133E-02 0.30000000E+03</pdfrwt>
<pdfrwt beam="2">0</pdfrwt>
<totfact> 0.25598109E+04</totfact>
</mgrwt>
</event>
<event>
 6    1  0.1273846E-001  0.3000000E+03  0.7818608E-02  0.1093470E+00
         21   -1    0    0  501  502  0.00000000000E+00  0.00000000000E+00  0.23357741240E+01  0.23357741240E+01  0.00000000000E+00 0. -1.
         13   -1    0    0    0    0 -0.00000000000E+00 -0.00000000000E+00 -0.10000000000E+04  0.10000000000E+04  0.00000000000E+00 0.  1.
    9000005    2    1    2  501    0 -0.23595344287E+02  0.41096895297E+02 -0.40354531461E+03  0.40632992197E+03  0.30804985581E+01 0.  0.
         13    1    3    3    0    0 -0.13616438137E+02  0.20878811168E+02 -0.20667385584E+03  0.20817159948E+03  0.00000000000E+00 0.  1.
          1    1    3    3  501    0 -0.99789061497E+01  0.20218084128E+02 -0.19687145876E+03  0.19815832248E+03  0.00000000000E+00 0.  1.
         -3    1    1    2    0  502  0.23595344287E+02 -0.41096895297E+02 -0.59411891127E+03  0.59600585216E+03  0.00000000000E+00 0. -1.
<mgrwt>
<rscale>  1 0.30000000E+03</rscale>
<asrwt>0</asrwt>
<pdfrwt beam="1">  1       21 0.84937420E-02 0.30000000E+03</pdfrwt>
<pdfrwt beam="2">0</pdfrwt>
<totfact> 0.11496182E+04</totfact>
</mgrwt>
</event>
<event>
 6    1  0.1273846E-001  0.3000000E+03  0.7818608E-02  0.1093470E+00
         21   -1    0    0  501  502  0.00000000000E+00  0.00000000000E+00  0.91737966668E+00  0.91737966668E+00  0.00000000000E+00 0. -1.
         13   -1    0    0    0    0 -0.00000000000E+00 -0.00000000000E+00 -0.10000000000E+04  0.10000000000E+04  0.00000000000E+00 0.  1.
    9000005    2    1    2  501    0 -0.23382867095E+02  0.19079185889E+02 -0.50150485867E+03  0.50242525063E+03  0.36380482498E+01 0.  0.
         13    1    3    3    0    0 -0.16130056757E+02  0.15241639364E+02 -0.36614004565E+03  0.36681196726E+03  0.00000000000E+00 0.  1.
          3    1    3    3  501    0 -0.72528103382E+01  0.38375465255E+01 -0.13536481302E+03  0.13561328337E+03  0.00000000000E+00 0.  1.
         -1    1    1    2    0  502  0.23382867095E+02 -0.19079185889E+02 -0.49757776166E+03  0.49849212903E+03  0.00000000000E+00 0. -1.
<mgrwt>
<rscale>  1 0.30000000E+03</rscale>
<asrwt>0</asrwt>
<pdfrwt beam="1">  1       21 0.33359331E-02 0.30000000E+03</pdfrwt>
<pdfrwt beam="2">0</pdfrwt>
<totfact> 0.57013890E+04</totfact>
</mgrwt>
</event>
<event>
 6    1  0.1273846E-001  0.3000000E+03  0.7818608E-02  0.1093470E+00
         21   -1    0    0  501  502  0.00000000000E+00  0.00000000000E+00  0.11216474098E+01  0.11216474098E+01  0.00000000000E+00 0. -1.
         13   -1    0    0    0    0 -0.00000000000E+00 -0.00000000000E+00 -0.10000000000E+04  0.10000000000E+04  0.00000000000E+00 0.  1.
    9000005    2    1    2  501    0  0.30503966174E+02 -0.11113683371E+02 -0.61908147035E+03  0.61993969917E+03  0.30590449784E+01 0.  0.
         13    1    3    3    0    0  0.91867519298E+01 -0.18756266573E+01 -0.17883183919E+03  0.17907747232E+03  0.00000000000E+00 0.  1.
          3    1    3    3  501    0  0.21317214244E+02 -0.92380567141E+01 -0.44024963116E+03  0.44086222684E+03  0.00000000000E+00 0.  1.
         -3    1    1    2    0  502 -0.30503966174E+02  0.11113683371E+02 -0.37979688224E+03  0.38118194824E+03  0.00000000000E+00 0. -1.
<mgrwt>
<rscale>  1 0.30000000E+03</rscale>
<asrwt>0</asrwt>
<pdfrwt beam="1">  1       21 0.40787265E-02 0.30000000E+03</pdfrwt>
<pdfrwt beam="2">0</pdfrwt>
<totfact> 0.40688953E+04</totfact>
</mgrwt>
</event>
<event>
 6    1  0.1273846E-001  0.3000000E+03  0.7818608E-02  0.1093470E+00
         21   -1    0    0  501  502  0.00000000000E+00  0.00000000000E+00  0.44572183094E+01  0.44572183094E+01  0.00000000000E+00 0. -1.
         13   -1    0    0    0    0 -0.00000000000E+00 -0.00000000000E+00 -0.10000000000E+04  0.10000000000E+04  0.00000000000E+00 0.  1.
    9000005    2    1    2  501    0  0.41936238804E+02  0.32120681283E+02 -0.80461665189E+03  0.80635832046E+03  0.39240508315E+01 0.  0.
         13    1    3    3    0    0  0.22156500574E+02  0.14558496185E+02 -0.40927222014E+03  0.41012999221E+03  0.00000000000E+00 0.  1.
          3    1    3    3  501    0  0.19779738230E+02  0.17562185097E+02 -0.39534443175E+03  0.39622832825E+03  0.00000000000E+00 0.  1.
         -1    1    1    2    0  502 -0.41936238804E+02 -0.32120681283E+02 -0.19092612980E+03  0.19809889785E+03  0.00000000000E+00 0. -1.
<mgrwt>
<rscale>  1 0.30000000E+03</rscale>
<asrwt>0</asrwt>
<pdfrwt beam="1">  1       21 0.16208101E-01 0.30000000E+03</pdfrwt>
<pdfrwt beam="2">0</pdfrwt>
<totfact> 0.35656960E+03</totfact>
</mgrwt>
</event>
<event>
 6    1  0.1273846E-001  0.3000000E+03  0.7818608E-02  0.1093470E+00
         21   -1    0    0  501  502  0.00000000000E+00  0.00000000000E+00  0.18016472954E+01  0.18016472954E+01  0.00000000000E+00 0. -1.
         13   -1    0    0    0    0 -0.00000000000E+00 -0.00000000000E+00 -0.10000000000E+04  0.10000000000E+04  0.00000000000E+00 0.  1.
    9000005    2    1    2  501    0 -0.98964108010E+01 -0.30520199763E+02 -0.82657906419E+03  0.82720897354E+03  0.35092734827E+01 0.  0.
         13    1    3    3    0    0 -0.40056992332E+00 -0.45345939960E+01 -0.10063222983E+03  0.10073514123E+03  0.00000000000E+00 0.  1.
          1    1    3    3  501    0 -0.94958408777E+01 -0.25985605767E+02 -0.72594683436E+03  0.72647383230E+03  0.00000000000E+00 0.  1.
         -3    1    1    2    0  502  0.98964108010E+01  0.30520199763E+02 -0.17161928852E+03  0.17459267376E+03  0.00000000000E+00 0. -1.
<mgrwt>
<rscale>  1 0.30000000E+03</rscale>
<asrwt>0</asrwt>
<pdfrwt beam="1">  1       21 0.65514585E-02 0.30000000E+03</pdfrwt>
<pdfrwt beam="2">0</pdfrwt>
<totfact> 0.18101157E+04</totfact>
</mgrwt>
</event>
<event>
 6    1  0.1273846E-001  0.3000000E+03  0.7818608E-02  0.1093470E+00
         21   -1    0    0  501  502  0.00000000000E+00  0.00000000000E+00  0.14740075251E+01  0.14740075251E+01  0.00000000000E+00 0. -1.
         13   -1    0    0    0    0 -0.00000000000E+00 -0.00000000000E+00 -0.10000000000E+04  0.10000000000E+04  0.00000000000E+00 0.  1.
    9000005    2    1    2  501    0  0.11281400506E+02  0.36618463215E+02 -0.49834601640E+03  0.49982852483E+03  0.34088594745E+01 0.  0.
         13    1    3    3    0    0  0.75160893762E+01  0.28464029725E+02 -0.39195895328E+03  0.39306298941E+03  0.00000000000E+00 0.  1.
          1    1    3    3  501    0  0.37653111298E+01  0.81544334898E+01 -0.10638706312E+03  0.10676553542E+03  0.00000000000E+00 0.  1.
         -1    1    1    2    0  502 -0.11281400506E+02 -0.36618463215E+02 -0.50017997607E+03  0.50164548270E+03  0.00000000000E+00 0. -1.
<mgrwt>
<rscale>  1 0.30000000E+03</rscale>
<asrwt>0</asrwt>
<pdfrwt beam="1">  1       21 0.53600387E-02 0.30000000E+03</pdfrwt>
<pdfrwt beam="2">0</pdfrwt>
<totfact> 0.25579105E+04</totfact>
</mgrwt>
</event>
<event>
 6    1  0.1273846E-001  0.3000000E+03  0.7818608E-02  0.1093470E+00
         21   -1    0    0  501  502  0.00000000000E+00  0.00000000000E+00  0.12082562083E+01  0.12082562083E+01  0.00000000000E+00 0. -1.
         13   -1    0    0    0    0 -0.00000000000E+00 -0.00000000000E+00 -0.10000000000E+04  0.10000000000E+04  0.00000000000E+00 0.  1.
    9000005    2    1    2  501    0  0.15184849204E+02 -0.30538018094E+02 -0.41064973466E+03  0.41207824246E+03  0.34818296206E+01 0.  0.
         13    1    3    3    0    0  0.13173396115E+02 -0.24563520393E+02 -0.34664899696E+03  0.34776778458E+03  0.00000000000E+00 0.  1.
          1    1    3    3  501    0  0.20114530893E+01 -0.59744977010E+01 -0.64000737697E+02  0.64310457875E+02  0.00000000000E+00 0.  1.
         -1    1    1    2    0  502 -0.15184849204E+02  0.30538018094E+02 -0.58814200913E+03  0.58913001375E+03  0.00000000000E+00 0. -1.
<mgrwt>
<rscale>  1 0.30000000E+03</rscale>
<asrwt>0</asrwt>
<pdfrwt beam="1">  1       21 0.43936682E-02 0.30000000E+03</pdfrwt>
<pdfrwt beam="2">0</pdfrwt>
<totfact> 0.35883830E+04</totfact>
</mgrwt>
</event>
<event>
 6    1  0.1273846E-001  0.3000000E+03  0.7818608E-02  0.1093470E+00
         21   -1    0    0  501  502  0.00000000000E+00  0.00000000000E+00  0.21053432698E+01  0.21053432698E+01  0.00000000000E+00 0. -1.
         13   -1    0    0    0    0 -0.00000000000E+00 -0.00000000000E+00 -0.10000000000E+04  0.10000000000E+04  0.00000000000E+00 0.  1.
    9000005    2    1    2  501    0 -0.20983178002E+02  0.40339639317E+02 -0.55934036987E+03  0.56120008952E+03  0.40386697666E+01 0.  0.
         13    1    3    3    0    0 -0.13847220898E+02  0.27985858318E+02 -0.36149145501E+03  0.36283746477E+03  0.00000000000E+00 0.  1.
          1    1    3    3  501    0 -0.71359571035E+01  0.12353780999E+02 -0.19784891486E+03  0.19836262475E+03  0.00000000000E+00 0.  1.
         -3    1    1    2    0  502  0.20983178002E+02 -0.40339639317E+02 -0.43855428686E+03  0.44090525375E+03  0.00000000000E+00 0. -1.
<mgrwt>
<rscale>  1 0.30000000E+03</rscale>
<asrwt>0</asrwt>
<pdfrwt beam="1">  1       21 0.76558099E-02 0.30000000E+03</pdfrwt>
<pdfrwt beam="2">0</pdfrwt>
<totfact> 0.13798424E+04</totfact>
</mgrwt>
</event>
<event>
 6    1  0.1273846E-001  0.3000000E+03  0.7818608E-02  0.1093470E+00
         21   -1    0    0  501  502  0.00000000000E+00  0.00000000000E+00  0.10812728910E+01  0.10812728910E+01  0.00000000000E+00 0. -1.
         13   -1    0    0    0    0 -0.00000000000E+00 -0.00000000000E+00 -0.10000000000E+04  0.10000000000E+04  0.00000000000E+00 0.  1.
    9000005    2    1    2  501    0  0.30078865064E+02  0.12912203937E+02 -0.49683473224E+03  0.49793139359E+03  0.44111711975E+01 0.  0.
         13    1    3    3    0    0  0.23037153833E+02  0.11529275173E+02 -0.37247728579E+03  0.37336706212E+03  0.00000000000E+00 0.  1.
          1    1    3    3  501    0  0.70417112312E+01  0.13829287638E+01 -0.12435744645E+03  0.12456433147E+03  0.00000000000E+00 0.  1.
         -1    1    1    2    0  502 -0.30078865064E+02 -0.12912203937E+02 -0.50208399487E+03  0.50314987930E+03  0.00000000000E+00 0. -1.
<mgrwt>
<rscale>  1 0.30000000E+03</rscale>
<asrwt>0</asrwt>
<pdfrwt beam="1">  1       21 0.39319097E-02 0.30000000E+03</pdfrwt>
<pdfrwt beam="2">0</pdfrwt>
<totfact> 0.43280270E+04</totfact>
</mgrwt>
</event>
<event>
 6    1  0.1273846E-001  0.3000000E+03  0.7818608E-02  0.1093470E+00
         21   -1    0    0  501  502  0.00000000000E+00  0.00000000000E+00  0.77578501028E+01  0.77578501028E+01  0.00000000000E+00 0. -1.
         13   -1    0    0    0    0 -0.00000000000E+00 -0.00000000000E+00 -0.10000000000E+04  0.10000000000E+04  0.00000000000E+00 0.  1.
    9000005    2    1    2  501    0 -0.18063243046E+02  0.41354886876E+02 -0.92882035229E+03  0.92991935173E+03  0.24992931191E+01 0.  0.
         13    1    3    3    0    0 -0.13180399589E+02  0.28991050502E+02 -0.67612789244E+03  0.67687748587E+03  0.00000000000E+00 0.  1.
          3    1    3    3  501    0 -0.48828434566E+01  0.12363836374E+02 -0.25269245985E+03  0.25304186586E+03  0.00000000000E+00 0.  1.
         -1    1    1    2    0  502  0.18063243046E+02 -0.41354886876E+02 -0.63421797602E+02  0.77838498373E+02  0.00000000000E+00 0. -1.
<mgrwt>
<rscale>  1 0.30000000E+03</rscale>
<asrwt>0</asrwt>
<pdfrwt beam="1">  1       21 0.28210423E-01 0.30000000E+03</pdfrwt>
<pdfrwt beam="2">0</pdfrwt>
<totfact> 0.12290106E+03</totfact>
</mgrwt>
</event>
<event>
 6    1  0.1273846E-001  0.3000000E+03  0.7818608E-02  0.1093470E+00
         21   -1    0    0  501  502  0.00000000000E+00  0.00000000000E+00  0.25937876480E+01  0.25937876480E+01  0.00000000000E+00 0. -1.
         13   -1    0    0    0    0 -0.00000000000E+00 -0.00000000000E+00 -0.10000000000E+04  0.10000000000E+04  0.00000000000E+00 0.  1.
    9000005    2    1    2  501    0  0.29409388709E+02 -0.93548112242E+01 -0.89735330512E+03  0.89788939957E+03  0.31614890274E+01 0.  0.
         13    1    3    3    0    0  0.43594930392E+01 -0.25832667594E+01 -0.15352453394E+03  0.15360814096E+03  0.00000000000E+00 0.  1.
          3    1    3    3  501    0  0.25049895669E+02 -0.67715444648E+01 -0.74382877118E+03  0.74428125861E+03  0.00000000000E+00 0.  1.
         -3    1    1    2    0  502 -0.29409388709E+02  0.93548112242E+01 -0.10005290723E+03  0.10470438808E+03  0.00000000000E+00 0. -1.
<mgrwt>
<rscale>  1 0.30000000E+03</rscale>
<asrwt>0</asrwt>
<pdfrwt beam="1">  1       21 0.94319750E-02 0.30000000E+03</pdfrwt>
<pdfrwt beam="2">0</pdfrwt>
<totfact> 0.95491391E+03</totfact>
</mgrwt>
</event>
<event>
 6    1  0.1273846E-001  0.3000000E+03  0.7818608E-02  0.1093470E+00
         21   -1    0    0  501  502  0.00000000000E+00  0.00000000000E+00  0.20146714729E+01  0.20146714729E+01  0.00000000000E+00 0. -1.
         13   -1    0    0    0    0 -0.00000000000E+00 -0.00000000000E+00 -0.10000000000E+04  0.10000000000E+04  0.00000000000E+00 0.  1.
    9000005    2    1    2  501    0  0.27452033392E+02 -0.26051045119E+02 -0.76684378273E+03  0.76779536125E+03  0.52970323643E+01 0.  0.
         13    1    3    3    0    0  0.77492964651E+00 -0.83627359808E+00 -0.49373605344E+02  0.49386767197E+02  0.00000000000E+00 0.  1.
          3    1    3    3  501    0  0.26677103745E+02 -0.25214771521E+02 -0.71747017738E+03  0.71840859405E+03  0.00000000000E+00 0.  1.
         -3    1    1    2    0  502 -0.27452033392E+02  0.26051045119E+02 -0.23114154580E+03  0.23421931023E+03  0.00000000000E+00 0. -1.
<mgrwt>
<rscale>  1 0.30000000E+03</rscale>
<asrwt>0</asrwt>
<pdfrwt beam="1">  1       21 0.73260935E-02 0.30000000E+03</pdfrwt>
<pdfrwt beam="2">0</pdfrwt>
<totfact> 0.14903737E+04</totfact>
</mgrwt>
</event>
<event>
 6    1  0.1273846E-001  0.3000000E+03  0.7818608E-02  0.1093470E+00
         21   -1    0    0  501  502  0.00000000000E+00  0.00000000000E+00  0.25225647237E+01  0.25225647237E+01  0.00000000000E+00 0. -1.
         13   -1    0    0    0    0 -0.00000000000E+00 -0.00000000000E+00 -0.10000000000E+04  0.10000000000E+04  0.00000000000E+00 0.  1.
    9000005    2    1    2  501    0  0.27668683076E+02 -0.19535164341E+02 -0.86852985562E+03  0.86920093494E+03  0.43562056812E+01 0.  0.
         13    1    3    3    0    0  0.10635304493E+02 -0.57786194528E+01 -0.27125967351E+03  0.27152957964E+03  0.00000000000E+00 0.  1.
          1    1    3    3  501    0  0.17033378583E+02 -0.13756544889E+02 -0.59727018211E+03  0.59767135531E+03  0.00000000000E+00 0.  1.
         -3    1    1    2    0  502 -0.27668683076E+02  0.19535164341E+02 -0.12894757965E+03  0.13332162978E+03  0.00000000000E+00 0. -1.
<mgrwt>
<rscale>  1 0.30000000E+03</rscale>
<asrwt>0</asrwt>
<pdfrwt beam="1">  1       21 0.91729820E-02 0.30000000E+03</pdfrwt>
<pdfrwt beam="2">0</pdfrwt>
<totfact> 0.10033587E+04</totfact>
</mgrwt>
</event>
<event>
 6    1  0.1273846E-001  0.3000000E+03  0.7818608E-02  0.1093470E+00
         21   -1    0    0  501  502  0.00000000000E+00  0.00000000000E+00  0.31212422331E+01  0.31212422331E+01  0.00000000000E+00 0. -1.
         13   -1    0    0    0    0 -0.00000000000E+00 -0.00000000000E+00 -0.10000000000E+04  0.10000000000E+04  0.00000000000E+00 0.  1.
    9000005    2    1    2  501    0 -0.34617517865E+02 -0.37924778368E+02 -0.69524187844E+03  0.69714498771E+03  0.36335940059E+01 0.  0.
         13    1    3    3    0    0 -0.34011577619E+02 -0.36414779317E+02 -0.66941637558E+03  0.67126828278E+03  0.00000000000E+00 0.  1.
          3    1    3    3  501    0 -0.60594024659E+00 -0.15099990506E+01 -0.25825502856E+02  0.25876704938E+02  0.00000000000E+00 0.  1.
         -1    1    1    2    0  502  0.34617517865E+02  0.37924778368E+02 -0.30163687933E+03  0.30597625452E+03  0.00000000000E+00 0. -1.
<mgrwt>
<rscale>  1 0.30000000E+03</rscale>
<asrwt>0</asrwt>
<pdfrwt beam="1">  1       21 0.11349996E-01 0.30000000E+03</pdfrwt>
<pdfrwt beam="2">0</pdfrwt>
<totfact> 0.68541154E+03</totfact>
</mgrwt>
</event>
<event>
 6    1  0.1273846E-001  0.3000000E+03  0.7818608E-02  0.1093470E+00
         21   -1    0    0  501  502  0.00000000000E+00  0.00000000000E+00  0.33626226613E+01  0.33626226613E+01  0.00000000000E+00 0. -1.
         13   -1    0    0    0    0 -0.00000000000E+00 -0.00000000000E+00 -0.10000000000E+04  0.10000000000E+04  0.00000000000E+00 0.  1.
    9000005    2    1    2  501    0  0.28940175736E+02  0.16670611666E+02 -0.90830728518E+03  0.90892932214E+03  0.38659133359E+01 0.  0.
         13    1    3    3    0    0  0.26610495771E+02  0.16027946822E+02 -0.86119474583E+03  0.86175483973E+03  0.00000000000E+00 0.  1.
          3    1    3    3  501    0  0.23296799660E+01  0.64266484419E+00 -0.47112539348E+02  0.47174482410E+02  0.00000000000E+00 0.  1.
         -1    1    1    2    0  502 -0.28940175736E+02 -0.16670611666E+02 -0.88330092163E+02  0.94433300517E+02  0.00000000000E+00 0. -1.
<mgrwt>
<rscale>  1 0.30000000E+03</rscale>
<asrwt>0</asrwt>
<pdfrwt beam="1">  1       21 0.12227745E-01 0.30000000E+03</pdfrwt>
<pdfrwt beam="2">0</pdfrwt>
<totfact> 0.59889994E+03</totfact>
</mgrwt>
</event>
<event>
 6    1  0.1273846E-001  0.3000000E+03  0.7818608E-02  0.1093470E+00
         21   -1    0    0  501  502  0.00000000000E+00  0.00000000000E+00  0.18808231183E+01  0.18808231183E+01  0.00000000000E+00 0. -1.
         13   -1    0    0    0    0 -0.00000000000E+00 -0.00000000000E+00 -0.10000000000E+04  0.10000000000E+04  0.00000000000E+00 0.  1.
    9000005    2    1    2  501    0 -0.22483112437E+02 -0.26885762996E+02 -0.79333728189E+03  0.79412144520E+03  0.40610703802E+01 0.  0.
         13    1    3    3    0    0 -0.17210621833E+02 -0.21595932378E+02 -0.58737790928E+03  0.58802669846E+03  0.00000000000E+00 0.  1.
          1    1    3    3  501    0 -0.52724906036E+01 -0.52898306183E+01 -0.20595937261E+03  0.20609474673E+03  0.00000000000E+00 0.  1.
         -1    1    1    2    0  502  0.22483112437E+02  0.26885762996E+02 -0.20478189499E+03  0.20775937792E+03  0.00000000000E+00 0. -1.
<mgrwt>
<rscale>  1 0.30000000E+03</rscale>
<asrwt>0</asrwt>
<pdfrwt beam="1">  1       21 0.68393712E-02 0.30000000E+03</pdfrwt>
<pdfrwt beam="2">0</pdfrwt>
<totfact> 0.16799893E+04</totfact>
</mgrwt>
</event>
<event>
 6    1  0.1273846E-001  0.3000000E+03  0.7818608E-02  0.1093470E+00
         21   -1    0    0  501  502  0.00000000000E+00  0.00000000000E+00  0.59927687723E+01  0.59927687723E+01  0.00000000000E+00 0. -1.
         13   -1    0    0    0    0 -0.00000000000E+00 -0.00000000000E+00 -0.10000000000E+04  0.10000000000E+04  0.00000000000E+00 0.  1.
    9000005    2    1    2  501    0 -0.24696220906E+02  0.33723653738E+02 -0.92032473978E+03  0.92127973734E+03  0.33970037525E+01 0.  0.
         13    1    3    3    0    0 -0.19537071793E+02  0.24230239190E+02 -0.67579011442E+03  0.67650652651E+03  0.00000000000E+00 0.  1.
          1    1    3    3  501    0 -0.51591491139E+01  0.94934145471E+01 -0.24453462536E+03  0.24477321083E+03  0.00000000000E+00 0.  1.
         -1    1    1    2    0  502  0.24696220906E+02 -0.33723653738E+02 -0.73682491449E+02  0.84713031433E+02  0.00000000000E+00 0. -1.
<mgrwt>
<rscale>  1 0.30000000E+03</rscale>
<asrwt>0</asrwt>
<pdfrwt beam="1">  1       21 0.21791932E-01 0.30000000E+03</pdfrwt>
<pdfrwt beam="2">0</pdfrwt>
<totfact> 0.20354784E+03</totfact>
</mgrwt>
</event>
<event>
 6    1  0.1273846E-001  0.3000000E+03  0.7818608E-02  0.1093470E+00
         21   -1    0    0  501  502  0.00000000000E+00  0.00000000000E+00  0.27341946720E+01  0.27341946720E+01  0.00000000000E+00 0. -1.
         13   -1    0    0    0    0 -0.00000000000E+00 -0.00000000000E+00 -0.10000000000E+04  0.10000000000E+04  0.00000000000E+00 0.  1.
    9000005    2    1    2  501    0 -0.71499974960E+01  0.41575366044E+02 -0.79409032554E+03  0.79522537771E+03  0.49318077285E+01 0.  0.
         13    1    3    3    0    0 -0.44239215754E+01  0.13096271159E+02 -0.27521744915E+03  0.27556438035E+03  0.00000000000E+00 0.  1.
          3    1    3    3  501    0 -0.27260759206E+01  0.28479094885E+02 -0.51887287638E+03  0.51966099736E+03  0.00000000000E+00 0.  1.
         -3    1    1    2    0  502  0.71499974960E+01 -0.41575366044E+02 -0.20317547979E+03  0.20750881696E+03  0.00000000000E+00 0. -1.
<mgrwt>
<rscale>  1 0.30000000E+03</rscale>
<asrwt>0</asrwt>
<pdfrwt beam="1">  1       21 0.99425470E-02 0.30000000E+03</pdfrwt>
<pdfrwt beam="2">0</pdfrwt>
<totfact> 0.86922142E+03</totfact>
</mgrwt>
</event>
<event>
 6    1  0.1273846E-001  0.3000000E+03  0.7818608E-02  0.1093470E+00
         21   -1    0    0  501  502  0.00000000000E+00  0.00000000000E+00  0.59002522124E+01  0.59002522124E+01  0.00000000000E+00 0. -1.
         13   -1    0    0    0    0 -0.00000000000E+00 -0.00000000000E+00 -0.10000000000E+04  0.10000000000E+04  0.00000000000E+00 0.  1.
    9000005    2    1    2  501    0 -0.84397742892E+01 -0.30695262972E+02 -0.95474814058E+03  0.95528426710E+03  0.32542386178E+01 0.  0.
         13    1    3    3    0    0 -0.57485378043E+01 -0.19489763254E+02 -0.65327961266E+03  0.65359555451E+03  0.00000000000E+00 0.  1.
          3    1    3    3  501    0 -0.26912364849E+01 -0.11205499719E+02 -0.30146852792E+03  0.30168871259E+03  0.00000000000E+00 0.  1.
         -1    1    1    2    0  502  0.84397742892E+01  0.30695262972E+02 -0.39351607204E+02  0.50615985109E+02  0.00000000000E+00 0. -1.
<mgrwt>
<rscale>  1 0.30000000E+03</rscale>
<asrwt>0</asrwt>
<pdfrwt beam="1">  1       21 0.21455508E-01 0.30000000E+03</pdfrwt>
<pdfrwt beam="2">0</pdfrwt>
<totfact> 0.20972674E+03</totfact>
</mgrwt>
</event>
<event>
 6    1  0.1273846E-001  0.3000000E+03  0.7818608E-02  0.1093470E+00
         21   -1    0    0  501  502  0.00000000000E+00  0.00000000000E+00  0.15005765260E+01  0.15005765260E+01  0.00000000000E+00 0. -1.
         13   -1    0    0    0    0 -0.00000000000E+00 -0.00000000000E+00 -0.10000000000E+04  0.10000000000E+04  0.00000000000E+00 0.  1.
    9000005    2    1    2  501    0 -0.30485810981E+02 -0.23543495619E+02 -0.54236280123E+03  0.54374048760E+03  0.35537086834E+01 0.  0.
         13    1    3    3    0    0 -0.25027599848E+02 -0.20815992956E+02 -0.46397554562E+03  0.46511610728E+03  0.00000000000E+00 0.  1.
          1    1    3    3  501    0 -0.54582111326E+01 -0.27275026630E+01 -0.78387255607E+02  0.78624380323E+02  0.00000000000E+00 0.  1.
         -3    1    1    2    0  502  0.30485810981E+02  0.23543495619E+02 -0.45613662225E+03  0.45776008892E+03  0.00000000000E+00 0. -1.
<mgrwt>
<rscale>  1 0.30000000E+03</rscale>
<asrwt>0</asrwt>
<pdfrwt beam="1">  1       21 0.54566534E-02 0.30000000E+03</pdfrwt>
<pdfrwt beam="2">0</pdfrwt>
<totfact> 0.24808361E+04</totfact>
</mgrwt>
</event>
<event>
 6    1  0.1273846E-001  0.3000000E+03  0.7818608E-02  0.1093470E+00
         21   -1    0    0  501  502  0.00000000000E+00  0.00000000000E+00  0.22196494632E+01  0.22196494632E+01  0.00000000000E+00 0. -1.
         13   -1    0    0    0    0 -0.00000000000E+00 -0.00000000000E+00 -0.10000000000E+04  0.10000000000E+04  0.00000000000E+00 0.  1.
    9000005    2    1    2  501    0  0.97175886200E+01 -0.30090353956E+02 -0.87018043745E+03  0.87076015475E+03  0.30647111430E+01 0.  0.
         13    1    3    3    0    0  0.90826138749E+01 -0.27751043025E+02 -0.82249952277E+03  0.82301766641E+03  0.00000000000E+00 0.  1.
          1    1    3    3  501    0  0.63497474508E+00 -0.23393109315E+01 -0.47680914673E+02  0.47742488337E+02  0.00000000000E+00 0.  1.
         -3    1    1    2    0  502 -0.97175886200E+01  0.30090353956E+02 -0.12759991309E+03  0.13145949471E+03  0.00000000000E+00 0. -1.
<mgrwt>
<rscale>  1 0.30000000E+03</rscale>
<asrwt>0</asrwt>
<pdfrwt beam="1">  1       21 0.80714696E-02 0.30000000E+03</pdfrwt>
<pdfrwt beam="2">0</pdfrwt>
<totfact> 0.12575816E+04</totfact>
</mgrwt>
</event>
<event>
 6    1  0.1273846E-001  0.3000000E+03  0.7818608E-02  0.1093470E+00
         21   -1    0    0  501  502  0.00000000000E+00  0.00000000000E+00  0.40479903603E+01  0.40479903603E+01  0.00000000000E+00 0. -1.
         13   -1    0    0    0    0 -0.00000000000E+00 -0.00000000000E+00 -0.10000000000E+04  0.10000000000E+04  0.00000000000E+00 0.  1.
    9000005    2    1    2  501    0  0.53281431009E+02 -0.57032822637E+01 -0.76833732193E+03  0.77021068714E+03  0.32899827011E+01 0.  0.
         13    1    3    3    0    0  0.44460035875E+02 -0.38662378472E+01 -0.62659518328E+03  0.62818243074E+03  0.00000000000E+00 0.  1.
          3    1    3    3  501    0  0.88213951333E+01 -0.18370444165E+01 -0.14174213866E+03  0.14202825640E+03  0.00000000000E+00 0.  1.
         -1    1    1    2    0  502 -0.53281431009E+02  0.57032822637E+01 -0.22761468771E+03  0.23383730322E+03  0.00000000000E+00 0. -1.
<mgrwt>
<rscale>  1 0.30000000E+03</rscale>
<asrwt>0</asrwt>
<pdfrwt beam="1">  1       21 0.14719996E-01 0.30000000E+03</pdfrwt>
<pdfrwt beam="2">0</pdfrwt>
<totfact> 0.42640305E+03</totfact>
</mgrwt>
</event>
<event>
 6    1  0.1273846E-001  0.3000000E+03  0.7818608E-02  0.1093470E+00
         21   -1    0    0  501  502  0.00000000000E+00  0.00000000000E+00  0.17800653407E+01  0.17800653407E+01  0.00000000000E+00 0. -1.
         13   -1    0    0    0    0 -0.00000000000E+00 -0.00000000000E+00 -0.10000000000E+04  0.10000000000E+04  0.00000000000E+00 0.  1.
    9000005    2    1    2  501    0 -0.21507957726E+02 -0.21393403587E+02 -0.84681710215E+03  0.84736799440E+03  0.36115737427E+01 0.  0.
         13    1    3    3    0    0 -0.20941433076E+02 -0.21359419863E+02 -0.82121572386E+03  0.82176032610E+03  0.00000000000E+00 0.  1.
          1    1    3    3  501    0 -0.56652465045E+00 -0.33983723928E-01 -0.25601378294E+02  0.25607668297E+02  0.00000000000E+00 0.  1.
         -3    1    1    2    0  502  0.21507957726E+02  0.21393403587E+02 -0.15140283251E+03  0.15441207095E+03  0.00000000000E+00 0. -1.
<mgrwt>
<rscale>  1 0.30000000E+03</rscale>
<asrwt>0</asrwt>
<pdfrwt beam="1">  1       21 0.64729785E-02 0.30000000E+03</pdfrwt>
<pdfrwt beam="2">0</pdfrwt>
<totfact> 0.18482860E+04</totfact>
</mgrwt>
</event>
<event>
 6    1  0.1273846E-001  0.3000000E+03  0.7818608E-02  0.1093470E+00
         21   -1    0    0  501  502  0.00000000000E+00  0.00000000000E+00  0.92331170166E+00  0.92331170166E+00  0.00000000000E+00 0. -1.
         13   -1    0    0    0    0 -0.00000000000E+00 -0.00000000000E+00 -0.10000000000E+04  0.10000000000E+04  0.00000000000E+00 0.  1.
    9000005    2    1    2  501    0  0.29288635462E+02 -0.68702365574E+01 -0.43412580082E+03  0.43517201513E+03  0.21089075989E+01 0.  0.
         13    1    3    3    0    0  0.14573208512E+01 -0.81236597618E+00 -0.22109362803E+02  0.22172226909E+02  0.00000000000E+00 0.  1.
          3    1    3    3  501    0  0.27831314611E+02 -0.60578705812E+01 -0.41201643802E+03  0.41299978822E+03  0.00000000000E+00 0.  1.
         -3    1    1    2    0  502 -0.29288635462E+02  0.68702365574E+01 -0.56495088748E+03  0.56575129658E+03  0.00000000000E+00 0. -1.
<mgrwt>
<rscale>  1 0.30000000E+03</rscale>
<asrwt>0</asrwt>
<pdfrwt beam="1">  1       21 0.33575042E-02 0.30000000E+03</pdfrwt>
<pdfrwt beam="2">0</pdfrwt>
<totfact> 0.56403695E+04</totfact>
</mgrwt>
</event>
<event>
 6    1  0.2005785E-001  0.3000000E+03  0.7818608E-02  0.1093470E+00
         21   -1    0    0  501  502  0.00000000000E+00  0.00000000000E+00  0.16779779592E+01  0.16779779592E+01  0.00000000000E+00 0. -1.
         13   -1    0    0    0    0 -0.00000000000E+00 -0.00000000000E+00 -0.10000000000E+04  0.10000000000E+04  0.00000000000E+00 0.  1.
    9000005    2    1    2  501    0  0.26227330880E+02 -0.29247789679E+02 -0.61837177432E+03  0.61970219753E+03  0.10190989647E+02 0.  0.
         13    1    3    3    0    0  0.18058902233E+01 -0.75575568709E+01 -0.14141232212E+03  0.14162564299E+03  0.00000000000E+00 0.  1.
          3    1    3    3  501    0  0.24421440657E+02 -0.21690232808E+02 -0.47695945220E+03  0.47807655454E+03  0.00000000000E+00 0.  1.
         -1    1    1    2    0  502 -0.26227330880E+02  0.29247789679E+02 -0.37995024772E+03  0.38197578043E+03  0.00000000000E+00 0. -1.
<mgrwt>
<rscale>  1 0.30000000E+03</rscale>
<asrwt>0</asrwt>
<pdfrwt beam="1">  1       21 0.61017509E-02 0.30000000E+03</pdfrwt>
<pdfrwt beam="2">0</pdfrwt>
<totfact> 0.20469117E+04</totfact>
</mgrwt>
</event>
<event>
 6    1  0.1273846E-001  0.3000000E+03  0.7818608E-02  0.1093470E+00
         21   -1    0    0  501  502  0.00000000000E+00  0.00000000000E+00  0.24041188643E+01  0.24041188643E+01  0.00000000000E+00 0. -1.
         13   -1    0    0    0    0 -0.00000000000E+00 -0.00000000000E+00 -0.10000000000E+04  0.10000000000E+04  0.00000000000E+00 0.  1.
    9000005    2    1    2  501    0 -0.44994422630E+02 -0.18734905582E+02 -0.45002296725E+03  0.45266637159E+03  0.32677457983E+01 0.  0.
         13    1    3    3    0    0 -0.31878098520E+02 -0.14325034067E+02 -0.33239966982E+03  0.33423189593E+03  0.00000000000E+00 0.  1.
          3    1    3    3  501    0 -0.13116324110E+02 -0.44098715152E+01 -0.11762329744E+03  0.11843447566E+03  0.00000000000E+00 0.  1.
         -3    1    1    2    0  502  0.44994422630E+02  0.18734905582E+02 -0.54757291388E+03  0.54973774727E+03  0.00000000000E+00 0. -1.
<mgrwt>
<rscale>  1 0.30000000E+03</rscale>
<asrwt>0</asrwt>
<pdfrwt beam="1">  1       21 0.87422689E-02 0.30000000E+03</pdfrwt>
<pdfrwt beam="2">0</pdfrwt>
<totfact> 0.10925574E+04</totfact>
</mgrwt>
</event>
<event>
 6    1  0.1273846E-001  0.3000000E+03  0.7818608E-02  0.1093470E+00
         21   -1    0    0  501  502  0.00000000000E+00  0.00000000000E+00  0.27546700311E+01  0.27546700311E+01  0.00000000000E+00 0. -1.
         13   -1    0    0    0    0 -0.00000000000E+00 -0.00000000000E+00 -0.10000000000E+04  0.10000000000E+04  0.00000000000E+00 0.  1.
    9000005    2    1    2  501    0  0.28215515993E+02 -0.21327187024E+02 -0.86884758658E+03  0.86957454855E+03  0.35780635956E+01 0.  0.
         13    1    3    3    0    0  0.32450028703E+00 -0.95990075751E+00 -0.25294803476E+02  0.25315090219E+02  0.00000000000E+00 0.  1.
          1    1    3    3  501    0  0.27891015706E+02 -0.20367286267E+02 -0.84355278310E+03  0.84425945833E+03  0.00000000000E+00 0.  1.
         -1    1    1    2    0  502 -0.28215515993E+02  0.21327187024E+02 -0.12839774339E+03  0.13318012148E+03  0.00000000000E+00 0. -1.
<mgrwt>
<rscale>  1 0.30000000E+03</rscale>
<asrwt>0</asrwt>
<pdfrwt beam="1">  1       21 0.10017003E-01 0.30000000E+03</pdfrwt>
<pdfrwt beam="2">0</pdfrwt>
<totfact> 0.85771202E+03</totfact>
</mgrwt>
</event>
<event>
 6    1  0.1273846E-001  0.3000000E+03  0.7818608E-02  0.1093470E+00
         21   -1    0    0  501  502  0.00000000000E+00  0.00000000000E+00  0.20459278144E+01  0.20459278144E+01  0.00000000000E+00 0. -1.
         13   -1    0    0    0    0 -0.00000000000E+00 -0.00000000000E+00 -0.10000000000E+04  0.10000000000E+04  0.00000000000E+00 0.  1.
    9000005    2    1    2  501    0  0.11768257200E+02  0.36616505748E+02 -0.76139127853E+03  0.76237695670E+03  0.47628480885E+01 0.  0.
         13    1    3    3    0    0  0.96010041767E+01  0.26842648327E+02 -0.59817158865E+03  0.59885052936E+03  0.00000000000E+00 0.  1.
          3    1    3    3  501    0  0.21672530235E+01  0.97738574208E+01 -0.16321968988E+03  0.16352642734E+03  0.00000000000E+00 0.  1.
         -3    1    1    2    0  502 -0.11768257200E+02 -0.36616505748E+02 -0.23656279366E+03  0.23966897111E+03  0.00000000000E+00 0. -1.
<mgrwt>
<rscale>  1 0.30000000E+03</rscale>
<asrwt>0</asrwt>
<pdfrwt beam="1">  1       21 0.74397532E-02 0.30000000E+03</pdfrwt>
<pdfrwt beam="2">0</pdfrwt>
<totfact> 0.14507856E+04</totfact>
</mgrwt>
</event>
<event>
 6    1  0.1273846E-001  0.3000000E+03  0.7818608E-02  0.1093470E+00
         21   -1    0    0  501  502  0.00000000000E+00  0.00000000000E+00  0.14959691364E+01  0.14959691364E+01  0.00000000000E+00 0. -1.
         13   -1    0    0    0    0 -0.00000000000E+00 -0.00000000000E+00 -0.10000000000E+04  0.10000000000E+04  0.00000000000E+00 0.  1.
    9000005    2    1    2  501    0  0.29555849247E+02  0.21066109602E+02 -0.33041661730E+03  0.33242338611E+03  0.35829380411E+01 0.  0.
         13    1    3    3    0    0  0.67443023473E+01  0.60602351348E+01 -0.93459159571E+02  0.93897958294E+02  0.00000000000E+00 0.  1.
          1    1    3    3  501    0  0.22811546900E+02  0.15005874467E+02 -0.23695745773E+03  0.23852542781E+03  0.00000000000E+00 0.  1.
         -3    1    1    2    0  502 -0.29555849247E+02 -0.21066109602E+02 -0.66808741356E+03  0.66907258303E+03  0.00000000000E+00 0. -1.
<mgrwt>
<rscale>  1 0.30000000E+03</rscale>
<asrwt>0</asrwt>
<pdfrwt beam="1">  1       21 0.54398992E-02 0.30000000E+03</pdfrwt>
<pdfrwt beam="2">0</pdfrwt>
<totfact> 0.24939427E+04</totfact>
</mgrwt>
</event>
<event>
 6    1  0.1273846E-001  0.3000000E+03  0.7818608E-02  0.1093470E+00
         21   -1    0    0  501  502  0.00000000000E+00  0.00000000000E+00  0.13311415022E+01  0.13311415022E+01  0.00000000000E+00 0. -1.
         13   -1    0    0    0    0 -0.00000000000E+00 -0.00000000000E+00 -0.10000000000E+04  0.10000000000E+04  0.00000000000E+00 0.  1.
    9000005    2    1    2  501    0 -0.32126529252E+02 -0.15690524350E+02 -0.40643503158E+03  0.40801907170E+03  0.34382456721E+01 0.  0.
         13    1    3    3    0    0 -0.19787838159E+02 -0.78456577204E+01 -0.23606734297E+03  0.23702511111E+03  0.00000000000E+00 0.  1.
          1    1    3    3  501    0 -0.12338691093E+02 -0.78448666294E+01 -0.17036768862E+03  0.17099396058E+03  0.00000000000E+00 0.  1.
         -1    1    1    2    0  502  0.32126529252E+02  0.15690524350E+02 -0.59223382691E+03  0.59331206981E+03  0.00000000000E+00 0. -1.
<mgrwt>
<rscale>  1 0.30000000E+03</rscale>
<asrwt>0</asrwt>
<pdfrwt beam="1">  1       21 0.48405248E-02 0.30000000E+03</pdfrwt>
<pdfrwt beam="2">0</pdfrwt>
<totfact> 0.30439870E+04</totfact>
</mgrwt>
</event>
<event>
 6    1  0.1273846E-001  0.3000000E+03  0.7818608E-02  0.1093470E+00
         21   -1    0    0  501  502  0.00000000000E+00  0.00000000000E+00  0.29992790223E+01  0.29992790223E+01  0.00000000000E+00 0. -1.
         13   -1    0    0    0    0 -0.00000000000E+00 -0.00000000000E+00 -0.10000000000E+04  0.10000000000E+04  0.00000000000E+00 0.  1.
    9000005    2    1    2  501    0 -0.23539239526E+01 -0.45469900577E+02 -0.77666836493E+03  0.77801172394E+03  0.39294658726E+01 0.  0.
         13    1    3    3    0    0  0.65129649264E+00 -0.21778952340E+02 -0.35636078430E+03  0.35702626729E+03  0.00000000000E+00 0.  1.
          3    1    3    3  501    0 -0.30052204452E+01 -0.23690948238E+02 -0.42030758063E+03  0.42098545665E+03  0.00000000000E+00 0.  1.
         -3    1    1    2    0  502  0.23539239526E+01  0.45469900577E+02 -0.22033235605E+03  0.22498755508E+03  0.00000000000E+00 0. -1.
<mgrwt>
<rscale>  1 0.30000000E+03</rscale>
<asrwt>0</asrwt>
<pdfrwt beam="1">  1       21 0.10906492E-01 0.30000000E+03</pdfrwt>
<pdfrwt beam="2">0</pdfrwt>
<totfact> 0.73642275E+03</totfact>
</mgrwt>
</event>
<event>
 6    1  0.1273846E-001  0.3000000E+03  0.7818608E-02  0.1093470E+00
         21   -1    0    0  501  502  0.00000000000E+00  0.00000000000E+00  0.45191370249E+01  0.45191370249E+01  0.00000000000E+00 0. -1.
         13   -1    0    0    0    0 -0.00000000000E+00 -0.00000000000E+00 -0.10000000000E+04  0.10000000000E+04  0.00000000000E+00 0.  1.
    9000005    2    1    2  501    0  0.26701712393E+02  0.24527969174E+02 -0.92061586805E+03  0.92133638532E+03  0.35434005923E+01 0.  0.
         13    1    3    3    0    0  0.49813729098E+01  0.28999380288E+01 -0.13657437895E+03  0.13669595715E+03  0.00000000000E+00 0.  1.
          3    1    3    3  501    0  0.21720339483E+02  0.21628031146E+02 -0.78404148910E+03  0.78464042816E+03  0.00000000000E+00 0.  1.
         -1    1    1    2    0  502 -0.26701712393E+02 -0.24527969174E+02 -0.74864994927E+02  0.83182751709E+02  0.00000000000E+00 0. -1.
<mgrwt>
<rscale>  1 0.30000000E+03</rscale>
<asrwt>0</asrwt>
<pdfrwt beam="1">  1       21 0.16433260E-01 0.30000000E+03</pdfrwt>
<pdfrwt beam="2">0</pdfrwt>
<totfact> 0.34750416E+03</totfact>
</mgrwt>
</event>
<event>
 6    1  0.1273846E-001  0.3000000E+03  0.7818608E-02  0.1093470E+00
         21   -1    0    0  501  502  0.00000000000E+00  0.00000000000E+00  0.49614534744E+01  0.49614534744E+01  0.00000000000E+00 0. -1.
         13   -1    0    0    0    0 -0.00000000000E+00 -0.00000000000E+00 -0.10000000000E+04  0.10000000000E+04  0.00000000000E+00 0.  1.
    9000005    2    1    2  501    0  0.87918689907E+01  0.66917410654E+02 -0.35524751969E+03  0.36162033491E+03  0.36372475373E+01 0.  0.
         13    1    3    3    0    0  0.52443230542E+01  0.34678561714E+02 -0.17554005137E+03  0.17900953942E+03  0.00000000000E+00 0.  1.
          3    1    3    3  501    0  0.35475459366E+01  0.32238848940E+02 -0.17970746832E+03  0.18261079550E+03  0.00000000000E+00 0.  1.
         -1    1    1    2    0  502 -0.87918689907E+01 -0.66917410654E+02 -0.63979102684E+03  0.64334111856E+03  0.00000000000E+00 0. -1.
<mgrwt>
<rscale>  1 0.30000000E+03</rscale>
<asrwt>0</asrwt>
<pdfrwt beam="1">  1       21 0.18041687E-01 0.30000000E+03</pdfrwt>
<pdfrwt beam="2">0</pdfrwt>
<totfact> 0.29168148E+03</totfact>
</mgrwt>
</event>
<event>
 6    1  0.1273846E-001  0.3000000E+03  0.7818608E-02  0.1093470E+00
         21   -1    0    0  501  502  0.00000000000E+00  0.00000000000E+00  0.15797192089E+01  0.15797192089E+01  0.00000000000E+00 0. -1.
         13   -1    0    0    0    0 -0.00000000000E+00 -0.00000000000E+00 -0.10000000000E+04  0.10000000000E+04  0.00000000000E+00 0.  1.
    9000005    2    1    2  501    0  0.31210520511E+02  0.20209532329E+02 -0.32583074003E+03  0.32796320209E+03  0.34159906825E+01 0.  0.
         13    1    3    3    0    0  0.14278069421E+02  0.86253089445E+01 -0.16045226191E+03  0.16131704055E+03  0.00000000000E+00 0.  1.
          3    1    3    3  501    0  0.16932451090E+02  0.11584223385E+02 -0.16537847812E+03  0.16664616154E+03  0.00000000000E+00 0.  1.
         -3    1    1    2    0  502 -0.31210520511E+02 -0.20209532329E+02 -0.67258954077E+03  0.67361651712E+03  0.00000000000E+00 0. -1.
<mgrwt>
<rscale>  1 0.30000000E+03</rscale>
<asrwt>0</asrwt>
<pdfrwt beam="1">  1       21 0.57444456E-02 0.30000000E+03</pdfrwt>
<pdfrwt beam="2">0</pdfrwt>
<totfact> 0.22712772E+04</totfact>
</mgrwt>
</event>
<event>
 6    1  0.1273846E-001  0.3000000E+03  0.7818608E-02  0.1093470E+00
         21   -1    0    0  501  502  0.00000000000E+00  0.00000000000E+00  0.92058457564E+01  0.92058457564E+01  0.00000000000E+00 0. -1.
         13   -1    0    0    0    0 -0.00000000000E+00 -0.00000000000E+00 -0.10000000000E+04  0.10000000000E+04  0.00000000000E+00 0.  1.
    9000005    2    1    2  501    0  0.48700786043E+02 -0.34969476247E+02 -0.88931127032E+03  0.89133555026E+03  0.31459203594E+01 0.  0.
         13    1    3    3    0    0  0.33849545487E+02 -0.26022317433E+02 -0.62807109515E+03  0.62952065360E+03  0.00000000000E+00 0.  1.
          1    1    3    3  501    0  0.14851240556E+02 -0.89471588143E+01 -0.26124017516E+03  0.26181489667E+03  0.00000000000E+00 0.  1.
         -3    1    1    2    0  502 -0.48700786043E+02  0.34969476247E+02 -0.10148288392E+03  0.11787029549E+03  0.00000000000E+00 0. -1.
<mgrwt>
<rscale>  1 0.30000000E+03</rscale>
<asrwt>0</asrwt>
<pdfrwt beam="1">  1       21 0.33475873E-01 0.30000000E+03</pdfrwt>
<pdfrwt beam="2">0</pdfrwt>
<totfact> 0.87146839E+02</totfact>
</mgrwt>
</event>
<event>
 6    1  0.1273846E-001  0.3000000E+03  0.7818608E-02  0.1093470E+00
         21   -1    0    0  501  502  0.00000000000E+00  0.00000000000E+00  0.14515510251E+01  0.14515510251E+01  0.00000000000E+00 0. -1.
         13   -1    0    0    0    0 -0.00000000000E+00 -0.00000000000E+00 -0.10000000000E+04  0.10000000000E+04  0.00000000000E+00 0.  1.
    9000005    2    1    2  501    0  0.17781346033E+02  0.32711886283E+02 -0.39375317377E+03  0.39551131579E+03  0.11812240451E+01 0.  0.
         13    1    3    3    0    0  0.42101752835E+01  0.78235377281E+01 -0.88728782776E+02  0.89172474517E+02  0.00000000000E+00 0.  1.
          1    1    3    3  501    0  0.13571170750E+02  0.24888348555E+02 -0.30502439099E+03  0.30633884127E+03  0.00000000000E+00 0.  1.
         -1    1    1    2    0  502 -0.17781346033E+02 -0.32711886283E+02 -0.60479527520E+03  0.60594023524E+03  0.00000000000E+00 0. -1.
<mgrwt>
<rscale>  1 0.30000000E+03</rscale>
<asrwt>0</asrwt>
<pdfrwt beam="1">  1       21 0.52783785E-02 0.30000000E+03</pdfrwt>
<pdfrwt beam="2">0</pdfrwt>
<totfact> 0.26259798E+04</totfact>
</mgrwt>
</event>
<event>
 6    1  0.1273846E-001  0.3000000E+03  0.7818608E-02  0.1093470E+00
         21   -1    0    0  501  502  0.00000000000E+00  0.00000000000E+00  0.20830648019E+01  0.20830648019E+01  0.00000000000E+00 0. -1.
         13   -1    0    0    0    0 -0.00000000000E+00 -0.00000000000E+00 -0.10000000000E+04  0.10000000000E+04  0.00000000000E+00 0.  1.
    9000005    2    1    2  501    0 -0.26859834739E+02  0.14608148138E+02 -0.87072806456E+03  0.87127076596E+03  0.32459958526E+01 0.  0.
         13    1    3    3    0    0 -0.20980190267E+02  0.10244196676E+02 -0.68805358869E+03  0.68844960081E+03  0.00000000000E+00 0.  1.
          1    1    3    3  501    0 -0.58796444719E+01  0.43639514616E+01 -0.18267447587E+03  0.18282116515E+03  0.00000000000E+00 0.  1.
         -1    1    1    2    0  502  0.26859834739E+02 -0.14608148138E+02 -0.12718887064E+03  0.13081229884E+03  0.00000000000E+00 0. -1.
<mgrwt>
<rscale>  1 0.30000000E+03</rscale>
<asrwt>0</asrwt>
<pdfrwt beam="1">  1       21 0.75747971E-02 0.30000000E+03</pdfrwt>
<pdfrwt beam="2">0</pdfrwt>
<totfact> 0.14058020E+04</totfact>
</mgrwt>
</event>
<event>
 6    1  0.1273846E-001  0.3000000E+03  0.7818608E-02  0.1093470E+00
         21   -1    0    0  501  502  0.00000000000E+00  0.00000000000E+00  0.55136966093E+01  0.55136966093E+01  0.00000000000E+00 0. -1.
         13   -1    0    0    0    0 -0.00000000000E+00 -0.00000000000E+00 -0.10000000000E+04  0.10000000000E+04  0.00000000000E+00 0.  1.
    9000005    2    1    2  501    0 -0.28508265602E+02  0.38961988710E+02 -0.87892978894E+03  0.88027765626E+03  0.63577072685E+01 0.  0.
         13    1    3    3    0    0 -0.81157680108E+01  0.10432697269E+02 -0.19305375406E+03  0.19350570746E+03  0.00000000000E+00 0.  1.
          1    1    3    3  501    0 -0.20392497591E+02  0.28529291441E+02 -0.68587603488E+03  0.68677194880E+03  0.00000000000E+00 0.  1.
         -3    1    1    2    0  502  0.28508265602E+02 -0.38961988710E+02 -0.11555651445E+03  0.12523604035E+03  0.00000000000E+00 0. -1.
<mgrwt>
<rscale>  1 0.30000000E+03</rscale>
<asrwt>0</asrwt>
<pdfrwt beam="1">  1       21 0.20049848E-01 0.30000000E+03</pdfrwt>
<pdfrwt beam="2">0</pdfrwt>
<totfact> 0.23878458E+03</totfact>
</mgrwt>
</event>
<event>
 6    1  0.1273846E-001  0.3000000E+03  0.7818608E-02  0.1093470E+00
         21   -1    0    0  501  502  0.00000000000E+00  0.00000000000E+00  0.15751153901E+01  0.15751153901E+01  0.00000000000E+00 0. -1.
         13   -1    0    0    0    0 -0.00000000000E+00 -0.00000000000E+00 -0.10000000000E+04  0.10000000000E+04  0.00000000000E+00 0.  1.
    9000005    2    1    2  501    0  0.34818949116E+02 -0.11390129817E+02 -0.69010904223E+03  0.69109040895E+03  0.36563494482E+01 0.  0.
         13    1    3    3    0    0  0.17627934375E+02 -0.47072307499E+01 -0.31455512683E+03  0.31508384584E+03  0.00000000000E+00 0.  1.
          1    1    3    3  501    0  0.17191014741E+02 -0.66828990672E+01 -0.37555391540E+03  0.37600656311E+03  0.00000000000E+00 0.  1.
         -3    1    1    2    0  502 -0.34818949116E+02  0.11390129817E+02 -0.30831584238E+03  0.31048470644E+03  0.00000000000E+00 0. -1.
<mgrwt>
<rscale>  1 0.30000000E+03</rscale>
<asrwt>0</asrwt>
<pdfrwt beam="1">  1       21 0.57277044E-02 0.30000000E+03</pdfrwt>
<pdfrwt beam="2">0</pdfrwt>
<totfact> 0.22827106E+04</totfact>
</mgrwt>
</event>
<event>
 6    1  0.1273846E-001  0.3000000E+03  0.7818608E-02  0.1093470E+00
         21   -1    0    0  501  502  0.00000000000E+00  0.00000000000E+00  0.26115561321E+01  0.26115561321E+01  0.00000000000E+00 0. -1.
         13   -1    0    0    0    0 -0.00000000000E+00 -0.00000000000E+00 -0.10000000000E+04  0.10000000000E+04  0.00000000000E+00 0.  1.
    9000005    2    1    2  501    0  0.28090373456E+02 -0.23047827018E+02 -0.85093773393E+03  0.85172059599E+03  0.35602243253E+01 0.  0.
         13    1    3    3    0    0  0.12018047927E+02 -0.11173033174E+02 -0.35007552893E+03  0.35045990655E+03  0.00000000000E+00 0.  1.
          3    1    3    3  501    0  0.16072325529E+02 -0.11874793844E+02 -0.50086220500E+03  0.50126068944E+03  0.00000000000E+00 0.  1.
         -1    1    1    2    0  502 -0.28090373456E+02  0.23047827018E+02 -0.14645070994E+03  0.15089096014E+03  0.00000000000E+00 0. -1.
<mgrwt>
<rscale>  1 0.30000000E+03</rscale>
<asrwt>0</asrwt>
<pdfrwt beam="1">  1       21 0.94965878E-02 0.30000000E+03</pdfrwt>
<pdfrwt beam="2">0</pdfrwt>
<totfact> 0.94337589E+03</totfact>
</mgrwt>
</event>
<event>
 6    1  0.1273846E-001  0.3000000E+03  0.7818608E-02  0.1093470E+00
         21   -1    0    0  501  502  0.00000000000E+00  0.00000000000E+00  0.29555916686E+01  0.29555916686E+01  0.00000000000E+00 0. -1.
         13   -1    0    0    0    0 -0.00000000000E+00 -0.00000000000E+00 -0.10000000000E+04  0.10000000000E+04  0.00000000000E+00 0.  1.
    9000005    2    1    2  501    0 -0.49785065382E+01 -0.36967943658E+02 -0.86309776986E+03  0.86391201453E+03  0.38463133829E+01 0.  0.
         13    1    3    3    0    0 -0.35294843568E+01 -0.17339788608E+02 -0.44360683830E+03  0.44395962937E+03  0.00000000000E+00 0.  1.
          3    1    3    3  501    0 -0.14490221814E+01 -0.19628155050E+02 -0.41949093156E+03  0.41995238516E+03  0.00000000000E+00 0.  1.
         -1    1    1    2    0  502  0.49785065382E+01  0.36967943658E+02 -0.13394663847E+03  0.13904357714E+03  0.00000000000E+00 0. -1.
<mgrwt>
<rscale>  1 0.30000000E+03</rscale>
<asrwt>0</asrwt>
<pdfrwt beam="1">  1       21 0.10747629E-01 0.30000000E+03</pdfrwt>
<pdfrwt beam="2">0</pdfrwt>
<totfact> 0.75609602E+03</totfact>
</mgrwt>
</event>
<event>
 6    1  0.1273846E-001  0.3000000E+03  0.7818608E-02  0.1093470E+00
         21   -1    0    0  501  502  0.00000000000E+00  0.00000000000E+00  0.20638676623E+01  0.20638676623E+01  0.00000000000E+00 0. -1.
         13   -1    0    0    0    0 -0.00000000000E+00 -0.00000000000E+00 -0.10000000000E+04  0.10000000000E+04  0.00000000000E+00 0.  1.
    9000005    2    1    2  501    0 -0.34795816667E+02  0.27736104648E+02 -0.59720814169E+03  0.59887289201E+03  0.33370534206E+01 0.  0.
         13    1    3    3    0    0 -0.74244600896E+01  0.42502662550E+01 -0.11635612038E+03  0.11667019380E+03  0.00000000000E+00 0.  1.
          1    1    3    3  501    0 -0.27371356577E+02  0.23485838393E+02 -0.48085202131E+03  0.48220269821E+03  0.00000000000E+00 0.  1.
         -3    1    1    2    0  502  0.34795816667E+02 -0.27736104648E+02 -0.40072799064E+03  0.40319097565E+03  0.00000000000E+00 0. -1.
<mgrwt>
<rscale>  1 0.30000000E+03</rscale>
<asrwt>0</asrwt>
<pdfrwt beam="1">  1       21 0.75049891E-02 0.30000000E+03</pdfrwt>
<pdfrwt beam="2">0</pdfrwt>
<totfact> 0.14287817E+04</totfact>
</mgrwt>
</event>
<event>
 6    1  0.1273846E-001  0.3000000E+03  0.7818608E-02  0.1093470E+00
         21   -1    0    0  501  502  0.00000000000E+00  0.00000000000E+00  0.20964918387E+01  0.20964918387E+01  0.00000000000E+00 0. -1.
         13   -1    0    0    0    0 -0.00000000000E+00 -0.00000000000E+00 -0.10000000000E+04  0.10000000000E+04  0.00000000000E+00 0.  1.
    9000005    2    1    2  501    0 -0.23669828339E+02  0.24700954995E+02 -0.83151965712E+03  0.83223188740E+03  0.38178907228E+01 0.  0.
         13    1    3    3    0    0 -0.13802748126E+02  0.15527077822E+02 -0.46250514845E+03  0.46297150921E+03  0.00000000000E+00 0.  1.
          3    1    3    3  501    0 -0.98670802131E+01  0.91738771735E+01 -0.36901450867E+03  0.36926037819E+03  0.00000000000E+00 0.  1.
         -1    1    1    2    0  502  0.23669828339E+02 -0.24700954995E+02 -0.16638385105E+03  0.16986460444E+03  0.00000000000E+00 0. -1.
<mgrwt>
<rscale>  1 0.30000000E+03</rscale>
<asrwt>0</asrwt>
<pdfrwt beam="1">  1       21 0.76236228E-02 0.30000000E+03</pdfrwt>
<pdfrwt beam="2">0</pdfrwt>
<totfact> 0.13900670E+04</totfact>
</mgrwt>
</event>
<event>
 6    1  0.1273846E-001  0.3000000E+03  0.7818608E-02  0.1093470E+00
         21   -1    0    0  501  502  0.00000000000E+00  0.00000000000E+00  0.27405854600E+01  0.27405854600E+01  0.00000000000E+00 0. -1.
         13   -1    0    0    0    0 -0.00000000000E+00 -0.00000000000E+00 -0.10000000000E+04  0.10000000000E+04  0.00000000000E+00 0.  1.
    9000005    2    1    2  501    0  0.47520904168E+02 -0.75143999208E+01 -0.69511566672E+03  0.69679034950E+03  0.40371392624E+01 0.  0.
         13    1    3    3    0    0  0.21599122662E+02 -0.24432267639E+01 -0.28851674187E+03  0.28933441170E+03  0.00000000000E+00 0.  1.
          3    1    3    3  501    0  0.25921781507E+02 -0.50711731569E+01 -0.40659892485E+03  0.40745593780E+03  0.00000000000E+00 0.  1.
         -3    1    1    2    0  502 -0.47520904168E+02  0.75143999208E+01 -0.30214374782E+03  0.30595023596E+03  0.00000000000E+00 0. -1.
<mgrwt>
<rscale>  1 0.30000000E+03</rscale>
<asrwt>0</asrwt>
<pdfrwt beam="1">  1       21 0.99657863E-02 0.30000000E+03</pdfrwt>
<pdfrwt beam="2">0</pdfrwt>
<totfact> 0.86560391E+03</totfact>
</mgrwt>
</event>
<event>
 6    1  0.1273846E-001  0.3000000E+03  0.7818608E-02  0.1093470E+00
         21   -1    0    0  501  502  0.00000000000E+00  0.00000000000E+00  0.13684403078E+01  0.13684403078E+01  0.00000000000E+00 0. -1.
         13   -1    0    0    0    0 -0.00000000000E+00 -0.00000000000E+00 -0.10000000000E+04  0.10000000000E+04  0.00000000000E+00 0.  1.
    9000005    2    1    2  501    0 -0.50236331926E+01  0.33885204961E+02 -0.68632231413E+03  0.68718615426E+03  0.36121629699E+01 0.  0.
         13    1    3    3    0    0 -0.37895414532E+01  0.13473370595E+02 -0.28010259519E+03  0.28045205681E+03  0.00000000000E+00 0.  1.
          3    1    3    3  501    0 -0.12340917394E+01  0.20411834366E+02 -0.40621971894E+03  0.40673409744E+03  0.00000000000E+00 0.  1.
         -3    1    1    2    0  502  0.50236331926E+01 -0.33885204961E+02 -0.31230924556E+03  0.31418228605E+03  0.00000000000E+00 0. -1.
<mgrwt>
<rscale>  1 0.30000000E+03</rscale>
<asrwt>0</asrwt>
<pdfrwt beam="1">  1       21 0.49761571E-02 0.30000000E+03</pdfrwt>
<pdfrwt beam="2">0</pdfrwt>
<totfact> 0.29040303E+04</totfact>
</mgrwt>
</event>
<event>
 6    1  0.1273846E-001  0.3000000E+03  0.7818608E-02  0.1093470E+00
         21   -1    0    0  501  502  0.00000000000E+00  0.00000000000E+00  0.28037499694E+01  0.28037499694E+01  0.00000000000E+00 0. -1.
         13   -1    0    0    0    0 -0.00000000000E+00 -0.00000000000E+00 -0.10000000000E+04  0.10000000000E+04  0.00000000000E+00 0.  1.
    9000005    2    1    2  501    0  0.26569116783E+02 -0.22438669588E+02 -0.12223939223E+03  0.12715603834E+03  0.40959999311E+01 0.  0.
         13    1    3    3    0    0  0.18467268858E+02 -0.13519334798E+02 -0.75898374941E+02  0.79274054716E+02  0.00000000000E+00 0.  1.
          1    1    3    3  501    0  0.81018479248E+01 -0.89193347905E+01 -0.46341017285E+02  0.47881983625E+02  0.00000000000E+00 0.  1.
         -1    1    1    2    0  502 -0.26569116783E+02  0.22438669588E+02 -0.87495685780E+03  0.87564771163E+03  0.00000000000E+00 0. -1.
<mgrwt>
<rscale>  1 0.30000000E+03</rscale>
<asrwt>0</asrwt>
<pdfrwt beam="1">  1       21 0.10195476E-01 0.30000000E+03</pdfrwt>
<pdfrwt beam="2">0</pdfrwt>
<totfact> 0.83105198E+03</totfact>
</mgrwt>
</event>
<event>
 6    1  0.1273846E-001  0.3000000E+03  0.7818608E-02  0.1093470E+00
         21   -1    0    0  501  502  0.00000000000E+00  0.00000000000E+00  0.18197671607E+01  0.18197671607E+01  0.00000000000E+00 0. -1.
         13   -1    0    0    0    0 -0.00000000000E+00 -0.00000000000E+00 -0.10000000000E+04  0.10000000000E+04  0.00000000000E+00 0.  1.
    9000005    2    1    2  501    0  0.22104150613E+02 -0.36057688255E+02 -0.44151867531E+03  0.44355384487E+03  0.35386858612E+01 0.  0.
         13    1    3    3    0    0  0.12673141439E+02 -0.23064664025E+02 -0.28634853183E+03  0.28755533193E+03  0.00000000000E+00 0.  1.
          1    1    3    3  501    0  0.94310091736E+01 -0.12993024230E+02 -0.15517014348E+03  0.15599851294E+03  0.00000000000E+00 0.  1.
         -1    1    1    2    0  502 -0.22104150613E+02  0.36057688255E+02 -0.55666155753E+03  0.55826592229E+03  0.00000000000E+00 0. -1.
<mgrwt>
<rscale>  1 0.30000000E+03</rscale>
<asrwt>0</asrwt>
<pdfrwt beam="1">  1       21 0.66173491E-02 0.30000000E+03</pdfrwt>
<pdfrwt beam="2">0</pdfrwt>
<totfact> 0.17789992E+04</totfact>
</mgrwt>
</event>
<event>
 6    1  0.1273846E-001  0.3000000E+03  0.7818608E-02  0.1093470E+00
         21   -1    0    0  501  502  0.00000000000E+00  0.00000000000E+00  0.25500026763E+01  0.25500026763E+01  0.00000000000E+00 0. -1.
         13   -1    0    0    0    0 -0.00000000000E+00 -0.00000000000E+00 -0.10000000000E+04  0.10000000000E+04  0.00000000000E+00 0.  1.
    9000005    2    1    2  501    0 -0.99907790262E+01 -0.31092028920E+02 -0.88087620339E+03  0.88148812031E+03  0.34482802026E+01 0.  0.
         13    1    3    3    0    0 -0.33652304850E+01 -0.80269974865E+01 -0.20050305178E+03  0.20069188135E+03  0.00000000000E+00 0.  1.
          3    1    3    3  501    0 -0.66255485412E+01 -0.23065031433E+02 -0.68037315160E+03  0.68079623897E+03  0.00000000000E+00 0.  1.
         -3    1    1    2    0  502  0.99907790262E+01  0.31092028920E+02 -0.11657379394E+03  0.12106188236E+03  0.00000000000E+00 0. -1.
<mgrwt>
<rscale>  1 0.30000000E+03</rscale>
<asrwt>0</asrwt>
<pdfrwt beam="1">  1       21 0.92727566E-02 0.30000000E+03</pdfrwt>
<pdfrwt beam="2">0</pdfrwt>
<totfact> 0.98426703E+03</totfact>
</mgrwt>
</event>
<event>
 6    1  0.1273846E-001  0.3000000E+03  0.7818608E-02  0.1093470E+00
         21   -1    0    0  501  502  0.00000000000E+00  0.00000000000E+00  0.13891514657E+01  0.13891514657E+01  0.00000000000E+00 0. -1.
         13   -1    0    0    0    0 -0.00000000000E+00 -0.00000000000E+00 -0.10000000000E+04  0.10000000000E+04  0.00000000000E+00 0.  1.
    9000005    2    1    2  501    0 -0.22298119132E+02 -0.29750711333E+02 -0.48723605540E+03  0.48866457628E+03  0.34327091170E+01 0.  0.
         13    1    3    3    0    0 -0.20513856815E+02 -0.28612565523E+02 -0.46261555558E+03  0.46395328374E+03  0.00000000000E+00 0.  1.
          1    1    3    3  501    0 -0.17842623173E+01 -0.11381458101E+01 -0.24620499819E+02  0.24711292545E+02  0.00000000000E+00 0.  1.
         -3    1    1    2    0  502  0.22298119132E+02  0.29750711333E+02 -0.51137479313E+03  0.51272457518E+03  0.00000000000E+00 0. -1.
<mgrwt>
<rscale>  1 0.30000000E+03</rscale>
<asrwt>0</asrwt>
<pdfrwt beam="1">  1       21 0.50514705E-02 0.30000000E+03</pdfrwt>
<pdfrwt beam="2">0</pdfrwt>
<totfact> 0.28305995E+04</totfact>
</mgrwt>
</event>
<event>
 6    1  0.1273846E-001  0.3000000E+03  0.7818608E-02  0.1093470E+00
         21   -1    0    0  501  502  0.00000000000E+00  0.00000000000E+00  0.27750137286E+01  0.27750137286E+01  0.00000000000E+00 0. -1.
         13   -1    0    0    0    0 -0.00000000000E+00 -0.00000000000E+00 -0.10000000000E+04  0.10000000000E+04  0.00000000000E+00 0.  1.
    9000005    2    1    2  501    0  0.36828006171E+02  0.29426113211E+02 -0.72189192907E+03  0.72343563132E+03  0.29928628627E+01 0.  0.
         13    1    3    3    0    0  0.24961334118E+02  0.18661780489E+02 -0.46120764861E+03  0.46225947842E+03  0.00000000000E+00 0.  1.
          3    1    3    3  501    0  0.11866672053E+02  0.10764332721E+02 -0.26068428047E+03  0.26117615291E+03  0.00000000000E+00 0.  1.
         -3    1    1    2    0  502 -0.36828006171E+02 -0.29426113211E+02 -0.27533305720E+03  0.27933938241E+03  0.00000000000E+00 0. -1.
<mgrwt>
<rscale>  1 0.30000000E+03</rscale>
<asrwt>0</asrwt>
<pdfrwt beam="1">  1       21 0.10090980E-01 0.30000000E+03</pdfrwt>
<pdfrwt beam="2">0</pdfrwt>
<totfact> 0.84650537E+03</totfact>
</mgrwt>
</event>
<event>
 6    1  0.1273846E-001  0.3000000E+03  0.7818608E-02  0.1093470E+00
         21   -1    0    0  501  502  0.00000000000E+00  0.00000000000E+00  0.16780394023E+01  0.16780394023E+01  0.00000000000E+00 0. -1.
         13   -1    0    0    0    0 -0.00000000000E+00 -0.00000000000E+00 -0.10000000000E+04  0.10000000000E+04  0.00000000000E+00 0.  1.
    9000005    2    1    2  501    0  0.40169750124E+02 -0.37926709773E+01 -0.58190522515E+03  0.58331110627E+03  0.31878616782E+01 0.  0.
         13    1    3    3    0    0  0.13348123808E+02 -0.69390484873E-02 -0.18031180425E+03  0.18080519686E+03  0.00000000000E+00 0.  1.
          3    1    3    3  501    0  0.26821626315E+02 -0.37857319289E+01 -0.40159342090E+03  0.40250590942E+03  0.00000000000E+00 0.  1.
         -1    1    1    2    0  502 -0.40169750124E+02  0.37926709773E+01 -0.41641673545E+03  0.41836693313E+03  0.00000000000E+00 0. -1.
<mgrwt>
<rscale>  1 0.30000000E+03</rscale>
<asrwt>0</asrwt>
<pdfrwt beam="1">  1       21 0.61019743E-02 0.30000000E+03</pdfrwt>
<pdfrwt beam="2">0</pdfrwt>
<totfact> 0.20467823E+04</totfact>
</mgrwt>
</event>
<event>
 6    1  0.1273846E-001  0.3000000E+03  0.7818608E-02  0.1093470E+00
         21   -1    0    0  501  502  0.00000000000E+00  0.00000000000E+00  0.14246036830E+01  0.14246036830E+01  0.00000000000E+00 0. -1.
         13   -1    0    0    0    0 -0.00000000000E+00 -0.00000000000E+00 -0.10000000000E+04  0.10000000000E+04  0.00000000000E+00 0.  1.
    9000005    2    1    2  501    0  0.10811992404E+02  0.31301622268E+02 -0.73643470557E+03  0.73720039495E+03  0.56263671269E+01 0.  0.
         13    1    3    3    0    0  0.62155874025E+01  0.23485402739E+02 -0.57231599214E+03  0.57283138228E+03  0.00000000000E+00 0.  1.
          1    1    3    3  501    0  0.45964050014E+01  0.78162195296E+01 -0.16411871344E+03  0.16436901267E+03  0.00000000000E+00 0.  1.
         -3    1    1    2    0  502 -0.10811992404E+02 -0.31301622268E+02 -0.26214069075E+03  0.26422420873E+03  0.00000000000E+00 0. -1.
<mgrwt>
<rscale>  1 0.30000000E+03</rscale>
<asrwt>0</asrwt>
<pdfrwt beam="1">  1       21 0.51803880E-02 0.30000000E+03</pdfrwt>
<pdfrwt beam="2">0</pdfrwt>
<totfact> 0.27114330E+04</totfact>
</mgrwt>
</event>
<event>
 6    1  0.1273846E-001  0.3000000E+03  0.7818608E-02  0.1093470E+00
         21   -1    0    0  501  502  0.00000000000E+00  0.00000000000E+00  0.20520743981E+01  0.20520743981E+01  0.00000000000E+00 0. -1.
         13   -1    0    0    0    0 -0.00000000000E+00 -0.00000000000E+00 -0.10000000000E+04  0.10000000000E+04  0.00000000000E+00 0.  1.
    9000005    2    1    2  501    0  0.35784655029E+02 -0.17897843874E+02 -0.73324788842E+03  0.73434517490E+03  0.30815071409E+01 0.  0.
         13    1    3    3    0    0  0.29959428773E+02 -0.13690720134E+02 -0.60605920088E+03  0.60695367052E+03  0.00000000000E+00 0.  1.
          1    1    3    3  501    0  0.58252262559E+01 -0.42071237399E+01 -0.12718868754E+03  0.12739150438E+03  0.00000000000E+00 0.  1.
         -3    1    1    2    0  502 -0.35784655029E+02  0.17897843874E+02 -0.26470003719E+03  0.26770689950E+03  0.00000000000E+00 0. -1.
<mgrwt>
<rscale>  1 0.30000000E+03</rscale>
<asrwt>0</asrwt>
<pdfrwt beam="1">  1       21 0.74621045E-02 0.30000000E+03</pdfrwt>
<pdfrwt beam="2">0</pdfrwt>
<totfact> 0.14431882E+04</totfact>
</mgrwt>
</event>
<event>
 6    1  0.1273846E-001  0.3000000E+03  0.7818608E-02  0.1093470E+00
         21   -1    0    0  501  502  0.00000000000E+00  0.00000000000E+00  0.16429829178E+01  0.16429829178E+01  0.00000000000E+00 0. -1.
         13   -1    0    0    0    0 -0.00000000000E+00 -0.00000000000E+00 -0.10000000000E+04  0.10000000000E+04  0.00000000000E+00 0.  1.
    9000005    2    1    2  501    0 -0.27125063067E+01  0.33540517569E+02 -0.77761254706E+03  0.77834845756E+03  0.35670761343E+01 0.  0.
         13    1    3    3    0    0  0.11902646250E+00  0.78353674177E+01 -0.21267868909E+03  0.21282300614E+03  0.00000000000E+00 0.  1.
          3    1    3    3  501    0 -0.28315327692E+01  0.25705150151E+02 -0.56493385796E+03  0.56552545141E+03  0.00000000000E+00 0.  1.
         -3    1    1    2    0  502  0.27125063067E+01 -0.33540517569E+02 -0.22074447002E+03  0.22329452536E+03  0.00000000000E+00 0. -1.
<mgrwt>
<rscale>  1 0.30000000E+03</rscale>
<asrwt>0</asrwt>
<pdfrwt beam="1">  1       21 0.59744959E-02 0.30000000E+03</pdfrwt>
<pdfrwt beam="2">0</pdfrwt>
<totfact> 0.21227026E+04</totfact>
</mgrwt>
</event>
<event>
 6    1  0.1273846E-001  0.3000000E+03  0.7818608E-02  0.1093470E+00
         21   -1    0    0  501  502  0.00000000000E+00  0.00000000000E+00  0.11924578247E+01  0.11924578247E+01  0.00000000000E+00 0. -1.
         13   -1    0    0    0    0 -0.00000000000E+00 -0.00000000000E+00 -0.10000000000E+04  0.10000000000E+04  0.00000000000E+00 0.  1.
    9000005    2    1    2  501    0 -0.13336247334E+02 -0.30583782140E+02 -0.62496236049E+03  0.62586134655E+03  0.33540797191E+01 0.  0.
         13    1    3    3    0    0 -0.13267055732E+02 -0.29863936487E+02 -0.60068685781E+03  0.60157507479E+03  0.00000000000E+00 0.  1.
          3    1    3    3  501    0 -0.69191601982E-01 -0.71984565288E+00 -0.24275502683E+02  0.24286271755E+02  0.00000000000E+00 0.  1.
         -3    1    1    2    0  502  0.13336247334E+02  0.30583782140E+02 -0.37384518168E+03  0.37533111128E+03  0.00000000000E+00 0. -1.
<mgrwt>
<rscale>  1 0.30000000E+03</rscale>
<asrwt>0</asrwt>
<pdfrwt beam="1">  1       21 0.43362194E-02 0.30000000E+03</pdfrwt>
<pdfrwt beam="2">0</pdfrwt>
<totfact> 0.36692379E+04</totfact>
</mgrwt>
</event>
<event>
 6    1  0.1273846E-001  0.3000000E+03  0.7818608E-02  0.1093470E+00
         21   -1    0    0  501  502  0.00000000000E+00  0.00000000000E+00  0.13998116307E+01  0.13998116307E+01  0.00000000000E+00 0. -1.
         13   -1    0    0    0    0 -0.00000000000E+00 -0.00000000000E+00 -0.10000000000E+04  0.10000000000E+04  0.00000000000E+00 0.  1.
    9000005    2    1    2  501    0  0.35329707879E+02 -0.10337921398E+02 -0.42522288579E+03  0.42684207564E+03  0.49592394996E+01 0.  0.
         13    1    3    3    0    0  0.25763139711E+02 -0.92449592054E+01 -0.33023046259E+03  0.33136289330E+03  0.00000000000E+00 0.  1.
          3    1    3    3  501    0  0.95665681679E+01 -0.10929621924E+01 -0.94992423207E+02  0.95479182336E+02  0.00000000000E+00 0.  1.
         -3    1    1    2    0  502 -0.35329707879E+02  0.10337921398E+02 -0.57337730258E+03  0.57455773599E+03  0.00000000000E+00 0. -1.
<mgrwt>
<rscale>  1 0.30000000E+03</rscale>
<asrwt>0</asrwt>
<pdfrwt beam="1">  1       21 0.50902348E-02 0.30000000E+03</pdfrwt>
<pdfrwt beam="2">0</pdfrwt>
<totfact> 0.27939247E+04</totfact>
</mgrwt>
</event>
<event>
 6    1  0.1273846E-001  0.3000000E+03  0.7818608E-02  0.1093470E+00
         21   -1    0    0  501  502  0.00000000000E+00  0.00000000000E+00  0.19070891227E+01  0.19070891227E+01  0.00000000000E+00 0. -1.
         13   -1    0    0    0    0 -0.00000000000E+00 -0.00000000000E+00 -0.10000000000E+04  0.10000000000E+04  0.00000000000E+00 0.  1.
    9000005    2    1    2  501    0 -0.67543048021E+01  0.42637801311E+02 -0.57153958752E+03  0.57317484121E+03  0.28802358107E+01 0.  0.
         13    1    3    3    0    0 -0.61616853531E+01  0.40795116996E+02 -0.53816951333E+03  0.53974867579E+03  0.00000000000E+00 0.  1.
          3    1    3    3  501    0 -0.59261944897E+00  0.18426843150E+01 -0.33370074189E+02  0.33426165420E+02  0.00000000000E+00 0.  1.
         -3    1    1    2    0  502  0.67543048021E+01 -0.42637801311E+02 -0.42655332335E+03  0.42873224791E+03  0.00000000000E+00 0. -1.
<mgrwt>
<rscale>  1 0.30000000E+03</rscale>
<asrwt>0</asrwt>
<pdfrwt beam="1">  1       21 0.69348842E-02 0.30000000E+03</pdfrwt>
<pdfrwt beam="2">0</pdfrwt>
<totfact> 0.16399770E+04</totfact>
</mgrwt>
</event>
<event>
 6    1  0.1273846E-001  0.3000000E+03  0.7818608E-02  0.1093470E+00
         21   -1    0    0  501  502  0.00000000000E+00  0.00000000000E+00  0.14753876278E+01  0.14753876278E+01  0.00000000000E+00 0. -1.
         13   -1    0    0    0    0 -0.00000000000E+00 -0.00000000000E+00 -0.10000000000E+04  0.10000000000E+04  0.00000000000E+00 0.  1.
    9000005    2    1    2  501    0 -0.28287115089E+02  0.16114966754E+02 -0.76434197972E+03  0.76504070644E+03  0.29609982580E+01 0.  0.
         13    1    3    3    0    0 -0.27366583663E+02  0.16098289550E+02 -0.73808460462E+03  0.73876719500E+03  0.00000000000E+00 0.  1.
          1    1    3    3  501    0 -0.92053142601E+00  0.16677203917E-01 -0.26257375102E+02  0.26273511442E+02  0.00000000000E+00 0.  1.
         -3    1    1    2    0  502  0.28287115089E+02 -0.16114966754E+02 -0.23418263265E+03  0.23643468119E+03  0.00000000000E+00 0. -1.
<mgrwt>
<rscale>  1 0.30000000E+03</rscale>
<asrwt>0</asrwt>
<pdfrwt beam="1">  1       21 0.53650572E-02 0.30000000E+03</pdfrwt>
<pdfrwt beam="2">0</pdfrwt>
<totfact> 0.25538164E+04</totfact>
</mgrwt>
</event>
<event>
 6    1  0.1273846E-001  0.3000000E+03  0.7818608E-02  0.1093470E+00
         21   -1    0    0  501  502  0.00000000000E+00  0.00000000000E+00  0.17802149486E+01  0.17802149486E+01  0.00000000000E+00 0. -1.
         13   -1    0    0    0    0 -0.00000000000E+00 -0.00000000000E+00 -0.10000000000E+04  0.10000000000E+04  0.00000000000E+00 0.  1.
    9000005    2    1    2  501    0 -0.37069988821E+01  0.31684787124E+02 -0.82653855060E+03  0.82716030246E+03  0.32438799157E+01 0.  0.
         13    1    3    3    0    0 -0.32444133558E+01  0.29310070032E+02 -0.78235318866E+03  0.78290875473E+03  0.00000000000E+00 0.  1.
          1    1    3    3  501    0 -0.46258552626E+00  0.23747170923E+01 -0.44185361938E+02  0.44251547727E+02  0.00000000000E+00 0.  1.
         -1    1    1    2    0  502  0.37069988821E+01 -0.31684787124E+02 -0.17168123445E+03  0.17461991249E+03  0.00000000000E+00 0. -1.
<mgrwt>
<rscale>  1 0.30000000E+03</rscale>
<asrwt>0</asrwt>
<pdfrwt beam="1">  1       21 0.64735226E-02 0.30000000E+03</pdfrwt>
<pdfrwt beam="2">0</pdfrwt>
<totfact> 0.18480171E+04</totfact>
</mgrwt>
</event>
<event>
 6    1  0.1273846E-001  0.3000000E+03  0.7818608E-02  0.1093470E+00
         21   -1    0    0  501  502  0.00000000000E+00  0.00000000000E+00  0.24063785212E+01  0.24063785212E+01  0.00000000000E+00 0. -1.
         13   -1    0    0    0    0 -0.00000000000E+00 -0.00000000000E+00 -0.10000000000E+04  0.10000000000E+04  0.00000000000E+00 0.  1.
    9000005    2    1    2  501    0 -0.26835709154E+02 -0.17101644299E+02 -0.87998758621E+03  0.88057123969E+03  0.38645508456E+01 0.  0.
         13    1    3    3    0    0 -0.10260369619E+01 -0.17388432538E+01 -0.56787671593E+02  0.56823551215E+02  0.00000000000E+00 0.  1.
          1    1    3    3  501    0 -0.25809672192E+02 -0.15362801045E+02 -0.82319991462E+03  0.82374768847E+03  0.00000000000E+00 0.  1.
         -3    1    1    2    0  502  0.26835709154E+02  0.17101644299E+02 -0.11760603527E+03  0.12183513883E+03  0.00000000000E+00 0. -1.
<mgrwt>
<rscale>  1 0.30000000E+03</rscale>
<asrwt>0</asrwt>
<pdfrwt beam="1">  1       21 0.87504858E-02 0.30000000E+03</pdfrwt>
<pdfrwt beam="2">0</pdfrwt>
<totfact> 0.10907449E+04</totfact>
</mgrwt>
</event>
<event>
 6    1  0.1273846E-001  0.3000000E+03  0.7818608E-02  0.1093470E+00
         21   -1    0    0  501  502  0.00000000000E+00  0.00000000000E+00  0.15846418649E+01  0.15846418649E+01  0.00000000000E+00 0. -1.
         13   -1    0    0    0    0 -0.00000000000E+00 -0.00000000000E+00 -0.10000000000E+04  0.10000000000E+04  0.00000000000E+00 0.  1.
    9000005    2    1    2  501    0  0.30587899952E+02  0.16347635194E+02 -0.74401451374E+03  0.74483056804E+03  0.34804628892E+01 0.  0.
         13    1    3    3    0    0  0.15969103090E+02  0.65709566645E+01 -0.37223256807E+03  0.37263289503E+03  0.00000000000E+00 0.  1.
          1    1    3    3  501    0  0.14618796863E+02  0.97766785297E+01 -0.37178194567E+03  0.37219767301E+03  0.00000000000E+00 0.  1.
         -1    1    1    2    0  502 -0.30587899952E+02 -0.16347635194E+02 -0.25440084439E+03  0.25675407383E+03  0.00000000000E+00 0. -1.
<mgrwt>
<rscale>  1 0.30000000E+03</rscale>
<asrwt>0</asrwt>
<pdfrwt beam="1">  1       21 0.57623462E-02 0.30000000E+03</pdfrwt>
<pdfrwt beam="2">0</pdfrwt>
<totfact> 0.22591486E+04</totfact>
</mgrwt>
</event>
<event>
 6    1  0.1273846E-001  0.3000000E+03  0.7818608E-02  0.1093470E+00
         21   -1    0    0  501  502  0.00000000000E+00  0.00000000000E+00  0.11046754851E+01  0.11046754851E+01  0.00000000000E+00 0. -1.
         13   -1    0    0    0    0 -0.00000000000E+00 -0.00000000000E+00 -0.10000000000E+04  0.10000000000E+04  0.00000000000E+00 0.  1.
    9000005    2    1    2  501    0  0.28768348632E+02 -0.13517429698E+02 -0.64277920779E+03  0.64357282043E+03  0.32444474135E+01 0.  0.
         13    1    3    3    0    0  0.24760113984E+02 -0.10439730420E+02 -0.53110461790E+03  0.53178394708E+03  0.00000000000E+00 0.  1.
          3    1    3    3  501    0  0.40082346474E+01 -0.30776992777E+01 -0.11167458989E+03  0.11178887335E+03  0.00000000000E+00 0.  1.
         -1    1    1    2    0  502 -0.28768348632E+02  0.13517429698E+02 -0.35611611672E+03  0.35753185505E+03  0.00000000000E+00 0. -1.
<mgrwt>
<rscale>  1 0.30000000E+03</rscale>
<asrwt>0</asrwt>
<pdfrwt beam="1">  1       21 0.40170102E-02 0.30000000E+03</pdfrwt>
<pdfrwt beam="2">0</pdfrwt>
<totfact> 0.41747881E+04</totfact>
</mgrwt>
</event>
<event>
 6    1  0.1273846E-001  0.3000000E+03  0.7818608E-02  0.1093470E+00
         21   -1    0    0  501  502  0.00000000000E+00  0.00000000000E+00  0.21711702926E+01  0.21711702926E+01  0.00000000000E+00 0. -1.
         13   -1    0    0    0    0 -0.00000000000E+00 -0.00000000000E+00 -0.10000000000E+04  0.10000000000E+04  0.00000000000E+00 0.  1.
    9000005    2    1    2  501    0 -0.28772617857E+02 -0.25856251393E+02 -0.77779200371E+03  0.77875985887E+03  0.31792271291E+01 0.  0.
         13    1    3    3    0    0 -0.49764936008E+00 -0.51615823874E+00 -0.79980086503E+01  0.80300819786E+01  0.00000000000E+00 0.  1.
          3    1    3    3  501    0 -0.28274968497E+02 -0.25340093154E+02 -0.76979399506E+03  0.77072977689E+03  0.00000000000E+00 0.  1.
         -3    1    1    2    0  502  0.28772617857E+02  0.25856251393E+02 -0.22003682600E+03  0.22341131142E+03  0.00000000000E+00 0. -1.
<mgrwt>
<rscale>  1 0.30000000E+03</rscale>
<asrwt>0</asrwt>
<pdfrwt beam="1">  1       21 0.78951813E-02 0.30000000E+03</pdfrwt>
<pdfrwt beam="2">0</pdfrwt>
<totfact> 0.13073129E+04</totfact>
</mgrwt>
</event>
<event>
 6    1  0.1273846E-001  0.3000000E+03  0.7818608E-02  0.1093470E+00
         21   -1    0    0  501  502  0.00000000000E+00  0.00000000000E+00  0.19094390106E+01  0.19094390106E+01  0.00000000000E+00 0. -1.
         13   -1    0    0    0    0 -0.00000000000E+00 -0.00000000000E+00 -0.10000000000E+04  0.10000000000E+04  0.00000000000E+00 0.  1.
    9000005    2    1    2  501    0 -0.37606341711E+02 -0.12635822923E+02 -0.70791343754E+03  0.70903290542E+03  0.35106912580E+01 0.  0.
         13    1    3    3    0    0 -0.25546617344E+02 -0.10090113794E+02 -0.50212876862E+03  0.50287944910E+03  0.00000000000E+00 0.  1.
          3    1    3    3  501    0 -0.12059724367E+02 -0.25457091289E+01 -0.20578466893E+03  0.20615345632E+03  0.00000000000E+00 0.  1.
         -3    1    1    2    0  502  0.37606341711E+02  0.12635822923E+02 -0.29017712345E+03  0.29287653359E+03  0.00000000000E+00 0. -1.
<mgrwt>
<rscale>  1 0.30000000E+03</rscale>
<asrwt>0</asrwt>
<pdfrwt beam="1">  1       21 0.69434292E-02 0.30000000E+03</pdfrwt>
<pdfrwt beam="2">0</pdfrwt>
<totfact> 0.16364686E+04</totfact>
</mgrwt>
</event>
<event>
 6    1  0.1273846E-001  0.3000000E+03  0.7818608E-02  0.1093470E+00
         21   -1    0    0  501  502  0.00000000000E+00  0.00000000000E+00  0.18306823848E+01  0.18306823848E+01  0.00000000000E+00 0. -1.
         13   -1    0    0    0    0 -0.00000000000E+00 -0.00000000000E+00 -0.10000000000E+04  0.10000000000E+04  0.00000000000E+00 0.  1.
    9000005    2    1    2  501    0 -0.71000401424E+01 -0.31199729736E+02 -0.83137657315E+03  0.83199648880E+03  0.27050473378E+01 0.  0.
         13    1    3    3    0    0 -0.30059095802E+01 -0.99115356441E+01 -0.29623483847E+03  0.29641584566E+03  0.00000000000E+00 0.  1.
          3    1    3    3  501    0 -0.40941305622E+01 -0.21288194092E+02 -0.53514173468E+03  0.53558064314E+03  0.00000000000E+00 0.  1.
         -3    1    1    2    0  502  0.71000401424E+01  0.31199729736E+02 -0.16679274446E+03  0.16983419358E+03  0.00000000000E+00 0. -1.
<mgrwt>
<rscale>  1 0.30000000E+03</rscale>
<asrwt>0</asrwt>
<pdfrwt beam="1">  1       21 0.66570409E-02 0.30000000E+03</pdfrwt>
<pdfrwt beam="2">0</pdfrwt>
<totfact> 0.17606507E+04</totfact>
</mgrwt>
</event>
<event>
 6    1  0.1273846E-001  0.3000000E+03  0.7818608E-02  0.1093470E+00
         21   -1    0    0  501  502  0.00000000000E+00  0.00000000000E+00  0.12268426379E+01  0.12268426379E+01  0.00000000000E+00 0. -1.
         13   -1    0    0    0    0 -0.00000000000E+00 -0.00000000000E+00 -0.10000000000E+04  0.10000000000E+04  0.00000000000E+00 0.  1.
    9000005    2    1    2  501    0 -0.98407443455E+01  0.32734340901E+02 -0.60493396927E+03  0.60590711963E+03  0.31548558905E+01 0.  0.
         13    1    3    3    0    0 -0.50424794809E+01  0.12107460346E+02 -0.21845943010E+03  0.21885278110E+03  0.00000000000E+00 0.  1.
          1    1    3    3  501    0 -0.47982648645E+01  0.20626880555E+02 -0.38647453917E+03  0.38705433853E+03  0.00000000000E+00 0.  1.
         -1    1    1    2    0  502  0.98407443455E+01 -0.32734340901E+02 -0.39383918809E+03  0.39531972301E+03  0.00000000000E+00 0. -1.
<mgrwt>
<rscale>  1 0.30000000E+03</rscale>
<asrwt>0</asrwt>
<pdfrwt beam="1">  1       21 0.44612554E-02 0.30000000E+03</pdfrwt>
<pdfrwt beam="2">0</pdfrwt>
<totfact> 0.34967361E+04</totfact>
</mgrwt>
</event>
<event>
 6    1  0.1273846E-001  0.3000000E+03  0.7818608E-02  0.1093470E+00
         21   -1    0    0  501  502  0.00000000000E+00  0.00000000000E+00  0.10506594986E+01  0.10506594986E+01  0.00000000000E+00 0. -1.
         13   -1    0    0    0    0 -0.00000000000E+00 -0.00000000000E+00 -0.10000000000E+04  0.10000000000E+04  0.00000000000E+00 0.  1.
    9000005    2    1    2  501    0  0.30777646866E+02  0.68403445559E+01 -0.61023510133E+03  0.61105987295E+03  0.36380724398E+01 0.  0.
         13    1    3    3    0    0  0.41892992797E+01  0.68093029858E-02 -0.98307990214E+02  0.98397211418E+02  0.00000000000E+00 0.  1.
          3    1    3    3  501    0  0.26588347586E+02  0.68335352529E+01 -0.51192711112E+03  0.51266266153E+03  0.00000000000E+00 0.  1.
         -1    1    1    2    0  502 -0.30777646866E+02 -0.68403445559E+01 -0.38871423917E+03  0.38999078655E+03  0.00000000000E+00 0. -1.
<mgrwt>
<rscale>  1 0.30000000E+03</rscale>
<asrwt>0</asrwt>
<pdfrwt beam="1">  1       21 0.38205881E-02 0.30000000E+03</pdfrwt>
<pdfrwt beam="2">0</pdfrwt>
<totfact> 0.45421807E+04</totfact>
</mgrwt>
</event>
<event>
 6    1  0.1273846E-001  0.3000000E+03  0.7818608E-02  0.1093470E+00
         21   -1    0    0  501  502  0.00000000000E+00  0.00000000000E+00  0.25638961861E+01  0.25638961861E+01  0.00000000000E+00 0. -1.
         13   -1    0    0    0    0 -0.00000000000E+00 -0.00000000000E+00 -0.10000000000E+04  0.10000000000E+04  0.00000000000E+00 0.  1.
    9000005    2    1    2  501    0 -0.26920830087E+02  0.22387156458E+02 -0.13811193970E+03  0.14252672554E+03  0.36116115447E+01 0.  0.
         13    1    3    3    0    0 -0.17653831527E+02  0.13185001411E+02 -0.81291469915E+02  0.84224729805E+02  0.00000000000E+00 0.  1.
          1    1    3    3  501    0 -0.92669985600E+01  0.92021550466E+01 -0.56820469785E+02  0.58301995733E+02  0.00000000000E+00 0.  1.
         -1    1    1    2    0  502  0.26920830087E+02 -0.22387156458E+02 -0.85932416411E+03  0.86003717065E+03  0.00000000000E+00 0. -1.
<mgrwt>
<rscale>  1 0.30000000E+03</rscale>
<asrwt>0</asrwt>
<pdfrwt beam="1">  1       21 0.93232785E-02 0.30000000E+03</pdfrwt>
<pdfrwt beam="2">0</pdfrwt>
<totfact> 0.97480767E+03</totfact>
</mgrwt>
</event>
<event>
 6    1  0.1273846E-001  0.3000000E+03  0.7818608E-02  0.1093470E+00
         21   -1    0    0  501  502  0.00000000000E+00  0.00000000000E+00  0.29791829533E+01  0.29791829533E+01  0.00000000000E+00 0. -1.
         13   -1    0    0    0    0 -0.00000000000E+00 -0.00000000000E+00 -0.10000000000E+04  0.10000000000E+04  0.00000000000E+00 0.  1.
    9000005    2    1    2  501    0 -0.46312628738E+02  0.23861955527E+02 -0.35184532513E+03  0.35570360959E+03  0.39588581170E+01 0.  0.
         13    1    3    3    0    0 -0.87191692471E+01  0.60840610215E+01 -0.66786592919E+02  0.67627573553E+02  0.00000000000E+00 0.  1.
          1    1    3    3  501    0 -0.37593459491E+02  0.17777894505E+02 -0.28505873221E+03  0.28807603603E+03  0.00000000000E+00 0.  1.
         -1    1    1    2    0  502  0.46312628738E+02 -0.23861955527E+02 -0.64517549192E+03  0.64727557337E+03  0.00000000000E+00 0. -1.
<mgrwt>
<rscale>  1 0.30000000E+03</rscale>
<asrwt>0</asrwt>
<pdfrwt beam="1">  1       21 0.10833415E-01 0.30000000E+03</pdfrwt>
<pdfrwt beam="2">0</pdfrwt>
<totfact> 0.74537510E+03</totfact>
</mgrwt>
</event>
<event>
 6    1  0.1273846E-001  0.3000000E+03  0.7818608E-02  0.1093470E+00
         21   -1    0    0  501  502  0.00000000000E+00  0.00000000000E+00  0.15859756614E+01  0.15859756614E+01  0.00000000000E+00 0. -1.
         13   -1    0    0    0    0 -0.00000000000E+00 -0.00000000000E+00 -0.10000000000E+04  0.10000000000E+04  0.00000000000E+00 0.  1.
    9000005    2    1    2  501    0  0.39403665591E+02 -0.24366072087E+01 -0.55305220961E+03  0.55447778748E+03  0.45038141832E+01 0.  0.
         13    1    3    3    0    0  0.84954478020E+01 -0.14967678477E+01 -0.14427811980E+03  0.14453576997E+03  0.00000000000E+00 0.  1.
          1    1    3    3  501    0  0.30908217789E+02 -0.93983936093E+00 -0.40877408981E+03  0.40994201751E+03  0.00000000000E+00 0.  1.
         -1    1    1    2    0  502 -0.39403665591E+02  0.24366072087E+01 -0.44536181473E+03  0.44710818818E+03  0.00000000000E+00 0. -1.
<mgrwt>
<rscale>  1 0.30000000E+03</rscale>
<asrwt>0</asrwt>
<pdfrwt beam="1">  1       21 0.57671964E-02 0.30000000E+03</pdfrwt>
<pdfrwt beam="2">0</pdfrwt>
<totfact> 0.22558794E+04</totfact>
</mgrwt>
</event>
<event>
 6    1  0.1273846E-001  0.3000000E+03  0.7818608E-02  0.1093470E+00
         21   -1    0    0  501  502  0.00000000000E+00  0.00000000000E+00  0.14764375653E+01  0.14764375653E+01  0.00000000000E+00 0. -1.
         13   -1    0    0    0    0 -0.00000000000E+00 -0.00000000000E+00 -0.10000000000E+04  0.10000000000E+04  0.00000000000E+00 0.  1.
    9000005    2    1    2  501    0  0.33050504391E+02  0.12630537348E+02 -0.69273502984E+03  0.69364776285E+03  0.36784530799E+01 0.  0.
         13    1    3    3    0    0  0.16879939709E+01 -0.60371361571E-02 -0.24741139349E+02  0.24798655939E+02  0.00000000000E+00 0.  1.
          1    1    3    3  501    0  0.31362510420E+02  0.12636574484E+02 -0.66799389050E+03  0.66884910691E+03  0.00000000000E+00 0.  1.
         -3    1    1    2    0  502 -0.33050504391E+02 -0.12630537348E+02 -0.30578853259E+03  0.30782867472E+03  0.00000000000E+00 0. -1.
<mgrwt>
<rscale>  1 0.30000000E+03</rscale>
<asrwt>0</asrwt>
<pdfrwt beam="1">  1       21 0.53688752E-02 0.30000000E+03</pdfrwt>
<pdfrwt beam="2">0</pdfrwt>
<totfact> 0.25507085E+04</totfact>
</mgrwt>
</event>
<event>
 6    1  0.1273846E-001  0.3000000E+03  0.7818608E-02  0.1093470E+00
         21   -1    0    0  501  502  0.00000000000E+00  0.00000000000E+00  0.33013393300E+01  0.33013393300E+01  0.00000000000E+00 0. -1.
         13   -1    0    0    0    0 -0.00000000000E+00 -0.00000000000E+00 -0.10000000000E+04  0.10000000000E+04  0.00000000000E+00 0.  1.
    9000005    2    1    2  501    0  0.13310909476E+02  0.42554466140E+02 -0.81453534828E+03  0.81576058301E+03  0.30712047128E+01 0.  0.
         13    1    3    3    0    0  0.40138310043E+01  0.17678074007E+02 -0.32271036197E+03  0.32321912515E+03  0.00000000000E+00 0.  1.
          3    1    3    3  501    0  0.92970784716E+01  0.24876392133E+02 -0.49182498631E+03  0.49254145786E+03  0.00000000000E+00 0.  1.
         -1    1    1    2    0  502 -0.13310909476E+02 -0.42554466140E+02 -0.18216331239E+03  0.18754075632E+03  0.00000000000E+00 0. -1.
<mgrwt>
<rscale>  1 0.30000000E+03</rscale>
<asrwt>0</asrwt>
<pdfrwt beam="1">  1       21 0.12004896E-01 0.30000000E+03</pdfrwt>
<pdfrwt beam="2">0</pdfrwt>
<totfact> 0.61925339E+03</totfact>
</mgrwt>
</event>
<event>
 6    1  0.1273846E-001  0.3000000E+03  0.7818608E-02  0.1093470E+00
         21   -1    0    0  501  502  0.00000000000E+00  0.00000000000E+00  0.17816956387E+01  0.17816956387E+01  0.00000000000E+00 0. -1.
         13   -1    0    0    0    0 -0.00000000000E+00 -0.00000000000E+00 -0.10000000000E+04  0.10000000000E+04  0.00000000000E+00 0.  1.
    9000005    2    1    2  501    0 -0.39270220408E+02 -0.33084730521E+01 -0.67656198210E+03  0.67772014924E+03  0.39228631730E+01 0.  0.
         13    1    3    3    0    0 -0.15163161854E+02 -0.97303204138E+00 -0.29382435304E+03  0.29421695857E+03  0.00000000000E+00 0.  1.
          3    1    3    3  501    0 -0.24107058555E+02 -0.23354410107E+01 -0.38273762906E+03  0.38350319067E+03  0.00000000000E+00 0.  1.
         -3    1    1    2    0  502  0.39270220408E+02  0.33084730521E+01 -0.32165632226E+03  0.32406154640E+03  0.00000000000E+00 0. -1.
<mgrwt>
<rscale>  1 0.30000000E+03</rscale>
<asrwt>0</asrwt>
<pdfrwt beam="1">  1       21 0.64789069E-02 0.30000000E+03</pdfrwt>
<pdfrwt beam="2">0</pdfrwt>
<totfact> 0.18453594E+04</totfact>
</mgrwt>
</event>
<event>
 6    1  0.1273846E-001  0.3000000E+03  0.7818608E-02  0.1093470E+00
         21   -1    0    0  501  502  0.00000000000E+00  0.00000000000E+00  0.17483886242E+01  0.17483886242E+01  0.00000000000E+00 0. -1.
         13   -1    0    0    0    0 -0.00000000000E+00 -0.00000000000E+00 -0.10000000000E+04  0.10000000000E+04  0.00000000000E+00 0.  1.
    9000005    2    1    2  501    0  0.29473817719E+02  0.83347822518E+01 -0.83971834142E+03  0.84028330816E+03  0.33121791334E+01 0.  0.
         13    1    3    3    0    0  0.21534687426E+02  0.53902821887E+01 -0.64214798918E+03  0.64253158515E+03  0.00000000000E+00 0.  1.
          3    1    3    3  501    0  0.79391302931E+01  0.29445000631E+01 -0.19757035224E+03  0.19775172301E+03  0.00000000000E+00 0.  1.
         -1    1    1    2    0  502 -0.29473817719E+02 -0.83347822518E+01 -0.15853326995E+03  0.16146508046E+03  0.00000000000E+00 0. -1.
<mgrwt>
<rscale>  1 0.30000000E+03</rscale>
<asrwt>0</asrwt>
<pdfrwt beam="1">  1       21 0.63577902E-02 0.30000000E+03</pdfrwt>
<pdfrwt beam="2">0</pdfrwt>
<totfact> 0.19066038E+04</totfact>
</mgrwt>
</event>
<event>
 6    1  0.1273846E-001  0.3000000E+03  0.7818608E-02  0.1093470E+00
         21   -1    0    0  501  502  0.00000000000E+00  0.00000000000E+00  0.95661839060E+01  0.95661839060E+01  0.00000000000E+00 0. -1.
         13   -1    0    0    0    0 -0.00000000000E+00 -0.00000000000E+00 -0.10000000000E+04  0.10000000000E+04  0.00000000000E+00 0.  1.
    9000005    2    1    2  501    0 -0.75180336028E+02 -0.75652625171E+00 -0.81793447091E+03  0.82139424299E+03  0.43644548323E+01 0.  0.
         13    1    3    3    0    0 -0.14075800131E+02  0.77649485140E+00 -0.13824227773E+03  0.13895919705E+03  0.00000000000E+00 0.  1.
          1    1    3    3  501    0 -0.61104535897E+02 -0.15330211031E+01 -0.67969219318E+03  0.68243504594E+03  0.00000000000E+00 0.  1.
         -1    1    1    2    0  502  0.75180336028E+02  0.75652625171E+00 -0.17249934519E+03  0.18817194091E+03  0.00000000000E+00 0. -1.
<mgrwt>
<rscale>  1 0.30000000E+03</rscale>
<asrwt>0</asrwt>
<pdfrwt beam="1">  1       21 0.34786197E-01 0.30000000E+03</pdfrwt>
<pdfrwt beam="2">0</pdfrwt>
<totfact> 0.80582748E+02</totfact>
</mgrwt>
</event>
<event>
 6    1  0.1273846E-001  0.3000000E+03  0.7818608E-02  0.1093470E+00
         21   -1    0    0  501  502  0.00000000000E+00  0.00000000000E+00  0.16634558731E+02  0.16634558731E+02  0.00000000000E+00 0. -1.
         13   -1    0    0    0    0 -0.00000000000E+00 -0.00000000000E+00 -0.10000000000E+04  0.10000000000E+04  0.00000000000E+00 0.  1.
    9000005    2    1    2  501    0 -0.29018133150E+02 -0.46940400121E+02 -0.95109482057E+03  0.95270611299E+03  0.47039121967E+01 0.  0.
         13    1    3    3    0    0 -0.24577009777E+02 -0.37950431601E+02 -0.80347888009E+03  0.80475000802E+03  0.00000000000E+00 0.  1.
          1    1    3    3  501    0 -0.44411233724E+01 -0.89899685206E+01 -0.14761594048E+03  0.14795610496E+03  0.00000000000E+00 0.  1.
         -3    1    1    2    0  502  0.29018133150E+02  0.46940400121E+02 -0.32270620699E+02  0.63928445745E+02  0.00000000000E+00 0. -1.
<mgrwt>
<rscale>  1 0.30000000E+03</rscale>
<asrwt>0</asrwt>
<pdfrwt beam="1">  1       21 0.60489432E-01 0.30000000E+03</pdfrwt>
<pdfrwt beam="2">0</pdfrwt>
<totfact> 0.24656315E+02</totfact>
</mgrwt>
</event>
<event>
 6    1  0.1273846E-001  0.3000000E+03  0.7818608E-02  0.1093470E+00
         21   -1    0    0  501  502  0.00000000000E+00  0.00000000000E+00  0.75397352182E+01  0.75397352182E+01  0.00000000000E+00 0. -1.
         13   -1    0    0    0    0 -0.00000000000E+00 -0.00000000000E+00 -0.10000000000E+04  0.10000000000E+04  0.00000000000E+00 0.  1.
    9000005    2    1    2  501    0 -0.60050613868E+02  0.47289526361E+02 -0.73502494854E+03  0.73899678227E+03  0.34919479342E+01 0.  0.
         13    1    3    3    0    0 -0.47074940724E+02  0.36412006658E+02 -0.58493888763E+03  0.58795866057E+03  0.00000000000E+00 0.  1.
          3    1    3    3  501    0 -0.12975673144E+02  0.10877519704E+02 -0.15008606090E+03  0.15103812170E+03  0.00000000000E+00 0.  1.
         -1    1    1    2    0  502  0.60050613868E+02 -0.47289526361E+02 -0.25743531624E+03  0.26854295295E+03  0.00000000000E+00 0. -1.
<mgrwt>
<rscale>  1 0.30000000E+03</rscale>
<asrwt>0</asrwt>
<pdfrwt beam="1">  1       21 0.27417277E-01 0.30000000E+03</pdfrwt>
<pdfrwt beam="2">0</pdfrwt>
<totfact> 0.13004520E+03</totfact>
</mgrwt>
</event>
<event>
 6    1  0.1273846E-001  0.3000000E+03  0.7818608E-02  0.1093470E+00
         21   -1    0    0  501  502  0.00000000000E+00  0.00000000000E+00  0.24833247918E+01  0.24833247918E+01  0.00000000000E+00 0. -1.
         13   -1    0    0    0    0 -0.00000000000E+00 -0.00000000000E+00 -0.10000000000E+04  0.10000000000E+04  0.00000000000E+00 0.  1.
    9000005    2    1    2  501    0 -0.61153499039E+01 -0.30048886293E+02 -0.89345209269E+03  0.89399475209E+03  0.54444249549E+01 0.  0.
         13    1    3    3    0    0 -0.40045424817E+00 -0.29821374830E+01 -0.14581829889E+03  0.14584933938E+03  0.00000000000E+00 0.  1.
          3    1    3    3  501    0 -0.57148956558E+01 -0.27066748810E+02 -0.74763379380E+03  0.74814541270E+03  0.00000000000E+00 0.  1.
         -1    1    1    2    0  502  0.61153499039E+01  0.30048886293E+02 -0.10406458252E+03  0.10848857270E+03  0.00000000000E+00 0. -1.
<mgrwt>
<rscale>  1 0.30000000E+03</rscale>
<asrwt>0</asrwt>
<pdfrwt beam="1">  1       21 0.90302910E-02 0.30000000E+03</pdfrwt>
<pdfrwt beam="2">0</pdfrwt>
<totfact> 0.10316485E+04</totfact>
</mgrwt>
</event>
<event>
 6    1  0.1273846E-001  0.3000000E+03  0.7818608E-02  0.1093470E+00
         21   -1    0    0  501  502  0.00000000000E+00  0.00000000000E+00  0.16448579697E+01  0.16448579697E+01  0.00000000000E+00 0. -1.
         13   -1    0    0    0    0 -0.00000000000E+00 -0.00000000000E+00 -0.10000000000E+04  0.10000000000E+04  0.00000000000E+00 0.  1.
    9000005    2    1    2  501    0 -0.34673618622E+02 -0.94896298285E+01 -0.72511032445E+03  0.72604543265E+03  0.80420609156E+01 0.  0.
         13    1    3    3    0    0 -0.31318801822E+02 -0.72688933485E+01 -0.59014508558E+03  0.59102024178E+03  0.00000000000E+00 0.  1.
          1    1    3    3  501    0 -0.33548168004E+01 -0.22207364800E+01 -0.13496523887E+03  0.13502519087E+03  0.00000000000E+00 0.  1.
         -1    1    1    2    0  502  0.34673618622E+02  0.94896298285E+01 -0.27324481758E+03  0.27559942532E+03  0.00000000000E+00 0. -1.
<mgrwt>
<rscale>  1 0.30000000E+03</rscale>
<asrwt>0</asrwt>
<pdfrwt beam="1">  1       21 0.59813143E-02 0.30000000E+03</pdfrwt>
<pdfrwt beam="2">0</pdfrwt>
<totfact> 0.21185317E+04</totfact>
</mgrwt>
</event>
<event>
 6    1  0.1273846E-001  0.3000000E+03  0.7818608E-02  0.1093470E+00
         21   -1    0    0  501  502  0.00000000000E+00  0.00000000000E+00  0.11417228465E+02  0.11417228465E+02  0.00000000000E+00 0. -1.
         13   -1    0    0    0    0 -0.00000000000E+00 -0.00000000000E+00 -0.10000000000E+04  0.10000000000E+04  0.00000000000E+00 0.  1.
    9000005    2    1    2  501    0  0.49605750434E+02  0.13949469805E+02 -0.93728932604E+03  0.93871003670E+03  0.31518414716E+01 0.  0.
         13    1    3    3    0    0  0.18918907511E+02  0.37964344354E+01 -0.34283754169E+03  0.34338013624E+03  0.00000000000E+00 0.  1.
          3    1    3    3  501    0  0.30686842923E+02  0.10153035370E+02 -0.59445178435E+03  0.59532990045E+03  0.00000000000E+00 0.  1.
         -3    1    1    2    0  502 -0.49605750434E+02 -0.13949469805E+02 -0.51293445495E+02  0.72707191767E+02  0.00000000000E+00 0. -1.
<mgrwt>
<rscale>  1 0.30000000E+03</rscale>
<asrwt>0</asrwt>
<pdfrwt beam="1">  1       21 0.41517282E-01 0.30000000E+03</pdfrwt>
<pdfrwt beam="2">0</pdfrwt>
<totfact> 0.55868327E+02</totfact>
</mgrwt>
</event>
<event>
 6    1  0.1273846E-001  0.3000000E+03  0.7818608E-02  0.1093470E+00
         21   -1    0    0  501  502  0.00000000000E+00  0.00000000000E+00  0.23610717454E+01  0.23610717454E+01  0.00000000000E+00 0. -1.
         13   -1    0    0    0    0 -0.00000000000E+00 -0.00000000000E+00 -0.10000000000E+04  0.10000000000E+04  0.00000000000E+00 0.  1.
    9000005    2    1    2  501    0  0.42921471461E+02 -0.17072902033E+02 -0.65309891916E+03  0.65473835304E+03  0.32211848344E+01 0.  0.
         13    1    3    3    0    0  0.54134553105E+01 -0.32787178246E+01 -0.84390748794E+02  0.84627737598E+02  0.00000000000E+00 0.  1.
          3    1    3    3  501    0  0.37508016151E+02 -0.13794184208E+02 -0.56870817037E+03  0.57011061544E+03  0.00000000000E+00 0.  1.
         -3    1    1    2    0  502 -0.42921471461E+02  0.17072902033E+02 -0.34454000909E+03  0.34762271871E+03  0.00000000000E+00 0. -1.
<mgrwt>
<rscale>  1 0.30000000E+03</rscale>
<asrwt>0</asrwt>
<pdfrwt beam="1">  1       21 0.85857335E-02 0.30000000E+03</pdfrwt>
<pdfrwt beam="2">0</pdfrwt>
<totfact> 0.11279793E+04</totfact>
</mgrwt>
</event>
<event>
 6    1  0.1273846E-001  0.3000000E+03  0.7818608E-02  0.1093470E+00
         21   -1    0    0  501  502  0.00000000000E+00  0.00000000000E+00  0.29208120895E+01  0.29208120895E+01  0.00000000000E+00 0. -1.
         13   -1    0    0    0    0 -0.00000000000E+00 -0.00000000000E+00 -0.10000000000E+04  0.10000000000E+04  0.00000000000E+00 0.  1.
    9000005    2    1    2  501    0 -0.45442095126E+02 -0.19330456815E+02 -0.70141148372E+03  0.70315750234E+03  0.37085083065E+01 0.  0.
         13    1    3    3    0    0 -0.42304225173E+02 -0.18295379141E+02 -0.66559391774E+03  0.66718785338E+03  0.00000000000E+00 0.  1.
          1    1    3    3  501    0 -0.31378699536E+01 -0.10350776735E+01 -0.35817565983E+02  0.35969648964E+02  0.00000000000E+00 0.  1.
         -1    1    1    2    0  502  0.45442095126E+02  0.19330456815E+02 -0.29566770419E+03  0.29976330974E+03  0.00000000000E+00 0. -1.
<mgrwt>
<rscale>  1 0.30000000E+03</rscale>
<asrwt>0</asrwt>
<pdfrwt beam="1">  1       21 0.10621157E-01 0.30000000E+03</pdfrwt>
<pdfrwt beam="2">0</pdfrwt>
<totfact> 0.77233218E+03</totfact>
</mgrwt>
</event>
<event>
 6    1  0.1273846E-001  0.3000000E+03  0.7818608E-02  0.1093470E+00
         21   -1    0    0  501  502  0.00000000000E+00  0.00000000000E+00  0.30288460916E+01  0.30288460916E+01  0.00000000000E+00 0. -1.
         13   -1    0    0    0    0 -0.00000000000E+00 -0.00000000000E+00 -0.10000000000E+04  0.10000000000E+04  0.00000000000E+00 0.  1.
    9000005    2    1    2  501    0  0.30309721449E+02 -0.37167619052E+02 -0.74387366765E+03  0.74542750939E+03  0.37452919038E+01 0.  0.
         13    1    3    3    0    0  0.95817096135E+01 -0.11813868173E+02 -0.26376788627E+03  0.26420612118E+03  0.00000000000E+00 0.  1.
          1    1    3    3  501    0  0.20728011835E+02 -0.25353750879E+02 -0.48010578138E+03  0.48122138821E+03  0.00000000000E+00 0.  1.
         -3    1    1    2    0  502 -0.30309721449E+02  0.37167619052E+02 -0.25309748626E+03  0.25760133670E+03  0.00000000000E+00 0. -1.
<mgrwt>
<rscale>  1 0.30000000E+03</rscale>
<asrwt>0</asrwt>
<pdfrwt beam="1">  1       21 0.11014009E-01 0.30000000E+03</pdfrwt>
<pdfrwt beam="2">0</pdfrwt>
<totfact> 0.72354350E+03</totfact>
</mgrwt>
</event>
<event>
 6    1  0.1273846E-001  0.3000000E+03  0.7818608E-02  0.1093470E+00
         21   -1    0    0  501  502  0.00000000000E+00  0.00000000000E+00  0.23770421863E+01  0.23770421863E+01  0.00000000000E+00 0. -1.
         13   -1    0    0    0    0 -0.00000000000E+00 -0.00000000000E+00 -0.10000000000E+04  0.10000000000E+04  0.00000000000E+00 0.  1.
    9000005    2    1    2  501    0  0.27189929634E+02 -0.19015546699E+02 -0.86582485966E+03  0.86646669686E+03  0.33114758593E+01 0.  0.
         13    1    3    3    0    0  0.13849706958E+02 -0.10119022054E+02 -0.40535736002E+03  0.40572009848E+03  0.00000000000E+00 0.  1.
          1    1    3    3  501    0  0.13340222676E+02 -0.88965246452E+01 -0.46046749964E+03  0.46074659838E+03  0.00000000000E+00 0.  1.
         -1    1    1    2    0  502 -0.27189929634E+02  0.19015546699E+02 -0.13179809815E+03  0.13591034532E+03  0.00000000000E+00 0. -1.
<mgrwt>
<rscale>  1 0.30000000E+03</rscale>
<asrwt>0</asrwt>
<pdfrwt beam="1">  1       21 0.86438080E-02 0.30000000E+03</pdfrwt>
<pdfrwt beam="2">0</pdfrwt>
<totfact> 0.11146366E+04</totfact>
</mgrwt>
</event>
<event>
 6    1  0.1273846E-001  0.3000000E+03  0.7818608E-02  0.1093470E+00
         21   -1    0    0  501  502  0.00000000000E+00  0.00000000000E+00  0.20396554931E+01  0.20396554931E+01  0.00000000000E+00 0. -1.
         13   -1    0    0    0    0 -0.00000000000E+00 -0.00000000000E+00 -0.10000000000E+04  0.10000000000E+04  0.00000000000E+00 0.  1.
    9000005    2    1    2  501    0 -0.41956535882E+02 -0.13354728054E+02 -0.60924172352E+03  0.61083527672E+03  0.23575306387E+01 0.  0.
         13    1    3    3    0    0 -0.28236103795E+01 -0.14696606003E+01 -0.40358315780E+02  0.40483655102E+02  0.00000000000E+00 0.  1.
          1    1    3    3  501    0 -0.39132925502E+02 -0.11885067454E+02 -0.56888340774E+03  0.57035162162E+03  0.00000000000E+00 0.  1.
         -3    1    1    2    0  502  0.41956535882E+02  0.13354728054E+02 -0.38871862099E+03  0.39120437877E+03  0.00000000000E+00 0. -1.
<mgrwt>
<rscale>  1 0.30000000E+03</rscale>
<asrwt>0</asrwt>
<pdfrwt beam="1">  1       21 0.74169447E-02 0.30000000E+03</pdfrwt>
<pdfrwt beam="2">0</pdfrwt>
<totfact> 0.14586012E+04</totfact>
</mgrwt>
</event>
<event>
 6    1  0.1273846E-001  0.3000000E+03  0.7818608E-02  0.1093470E+00
         21   -1    0    0  501  502  0.00000000000E+00  0.00000000000E+00  0.32196908395E+01  0.32196908395E+01  0.00000000000E+00 0. -1.
         13   -1    0    0    0    0 -0.00000000000E+00 -0.00000000000E+00 -0.10000000000E+04  0.10000000000E+04  0.00000000000E+00 0.  1.
    9000005    2    1    2  501    0 -0.35407212550E+02  0.28378976032E+01 -0.88943730226E+03  0.89015225302E+03  0.32549273456E+01 0.  0.
         13    1    3    3    0    0 -0.12362937447E+02  0.21378506974E+01 -0.28765308752E+03  0.28792657291E+03  0.00000000000E+00 0.  1.
          3    1    3    3  501    0 -0.23044275103E+02  0.70004690576E+00 -0.60178421474E+03  0.60222568011E+03  0.00000000000E+00 0.  1.
         -3    1    1    2    0  502  0.35407212550E+02 -0.28378976032E+01 -0.10734300690E+03  0.11306743782E+03  0.00000000000E+00 0. -1.
<mgrwt>
<rscale>  1 0.30000000E+03</rscale>
<asrwt>0</asrwt>
<pdfrwt beam="1">  1       21 0.11707991E-01 0.30000000E+03</pdfrwt>
<pdfrwt beam="2">0</pdfrwt>
<totfact> 0.64800808E+03</totfact>
</mgrwt>
</event>
<event>
 6    1  0.1273846E-001  0.3000000E+03  0.7818608E-02  0.1093470E+00
         21   -1    0    0  501  502  0.00000000000E+00  0.00000000000E+00  0.32319771384E+01  0.32319771384E+01  0.00000000000E+00 0. -1.
         13   -1    0    0    0    0 -0.00000000000E+00 -0.00000000000E+00 -0.10000000000E+04  0.10000000000E+04  0.00000000000E+00 0.  1.
    9000005    2    1    2  501    0  0.14178680967E+01 -0.34835733572E+02 -0.89447901594E+03  0.89516449998E+03  0.33516227576E+01 0.  0.
         13    1    3    3    0    0  0.17493631128E+01 -0.32837486887E+02 -0.85716658680E+03  0.85779713123E+03  0.00000000000E+00 0.  1.
          3    1    3    3  501    0 -0.33149501611E+00 -0.19982466858E+01 -0.37312429143E+02  0.37367368750E+02  0.00000000000E+00 0.  1.
         -1    1    1    2    0  502 -0.14178680967E+01  0.34835733572E+02 -0.10228900692E+03  0.10806747716E+03  0.00000000000E+00 0. -1.
<mgrwt>
<rscale>  1 0.30000000E+03</rscale>
<asrwt>0</asrwt>
<pdfrwt beam="1">  1       21 0.11752669E-01 0.30000000E+03</pdfrwt>
<pdfrwt beam="2">0</pdfrwt>
<totfact> 0.64355546E+03</totfact>
</mgrwt>
</event>
<event>
 6    1  0.1273846E-001  0.3000000E+03  0.7818608E-02  0.1093470E+00
         21   -1    0    0  501  502  0.00000000000E+00  0.00000000000E+00  0.13981137000E+01  0.13981137000E+01  0.00000000000E+00 0. -1.
         13   -1    0    0    0    0 -0.00000000000E+00 -0.00000000000E+00 -0.10000000000E+04  0.10000000000E+04  0.00000000000E+00 0.  1.
    9000005    2    1    2  501    0 -0.28538868548E+02 -0.13420410444E+02 -0.76753766263E+03  0.76819166033E+03  0.31287387376E+01 0.  0.
         13    1    3    3    0    0 -0.23853293837E+02 -0.12214087024E+02 -0.66550659138E+03  0.66604593439E+03  0.00000000000E+00 0.  1.
          1    1    3    3  501    0 -0.46855747113E+01 -0.12063234205E+01 -0.10203107125E+03  0.10214572594E+03  0.00000000000E+00 0.  1.
         -3    1    1    2    0  502  0.28538868548E+02  0.13420410444E+02 -0.23106422367E+03  0.23320645337E+03  0.00000000000E+00 0. -1.
<mgrwt>
<rscale>  1 0.30000000E+03</rscale>
<asrwt>0</asrwt>
<pdfrwt beam="1">  1       21 0.50840605E-02 0.30000000E+03</pdfrwt>
<pdfrwt beam="2">0</pdfrwt>
<totfact> 0.27997165E+04</totfact>
</mgrwt>
</event>
<event>
 6    1  0.1273846E-001  0.3000000E+03  0.7818608E-02  0.1093470E+00
         21   -1    0    0  501  502  0.00000000000E+00  0.00000000000E+00  0.10557205004E+01  0.10557205004E+01  0.00000000000E+00 0. -1.
         13   -1    0    0    0    0 -0.00000000000E+00 -0.00000000000E+00 -0.10000000000E+04  0.10000000000E+04  0.00000000000E+00 0.  1.
    9000005    2    1    2  501    0  0.73135734478E+01  0.29997157083E+02 -0.65075811605E+03  0.65150326062E+03  0.41297949062E+01 0.  0.
         13    1    3    3    0    0  0.21371250024E+01  0.57553128975E+01 -0.16315618198E+03  0.16327164680E+03  0.00000000000E+00 0.  1.
          1    1    3    3  501    0  0.51764484453E+01  0.24241844185E+02 -0.48760193407E+03  0.48823161382E+03  0.00000000000E+00 0.  1.
         -3    1    1    2    0  502 -0.73135734478E+01 -0.29997157083E+02 -0.34818616345E+03  0.34955245988E+03  0.00000000000E+00 0. -1.
<mgrwt>
<rscale>  1 0.30000000E+03</rscale>
<asrwt>0</asrwt>
<pdfrwt beam="1">  1       21 0.38389917E-02 0.30000000E+03</pdfrwt>
<pdfrwt beam="2">0</pdfrwt>
<totfact> 0.45056442E+04</totfact>
</mgrwt>
</event>
<event>
 6    1  0.1273846E-001  0.3000000E+03  0.7818608E-02  0.1093470E+00
         21   -1    0    0  501  502  0.00000000000E+00  0.00000000000E+00  0.75278535160E+01  0.75278535160E+01  0.00000000000E+00 0. -1.
         13   -1    0    0    0    0 -0.00000000000E+00 -0.00000000000E+00 -0.10000000000E+04  0.10000000000E+04  0.00000000000E+00 0.  1.
    9000005    2    1    2  501    0  0.74965990366E+02  0.15364133692E+02 -0.73346202296E+03  0.73744971593E+03  0.30964625983E+01 0.  0.
         13    1    3    3    0    0  0.55915812122E+02  0.11233638354E+02 -0.53352941164E+03  0.53656910623E+03  0.00000000000E+00 0.  1.
          3    1    3    3  501    0  0.19050178243E+02  0.41304953376E+01 -0.19993261133E+03  0.20088060970E+03  0.00000000000E+00 0.  1.
         -3    1    1    2    0  502 -0.74965990366E+02 -0.15364133692E+02 -0.25901012352E+03  0.27007813759E+03  0.00000000000E+00 0. -1.
<mgrwt>
<rscale>  1 0.30000000E+03</rscale>
<asrwt>0</asrwt>
<pdfrwt beam="1">  1       21 0.27374071E-01 0.30000000E+03</pdfrwt>
<pdfrwt beam="2">0</pdfrwt>
<totfact> 0.13045152E+03</totfact>
</mgrwt>
</event>
<event>
 6    1  0.1273846E-001  0.3000000E+03  0.7818608E-02  0.1093470E+00
         21   -1    0    0  501  502  0.00000000000E+00  0.00000000000E+00  0.15169747446E+01  0.15169747446E+01  0.00000000000E+00 0. -1.
         13   -1    0    0    0    0 -0.00000000000E+00 -0.00000000000E+00 -0.10000000000E+04  0.10000000000E+04  0.00000000000E+00 0.  1.
    9000005    2    1    2  501    0  0.30746971030E+02  0.94749463541E+01 -0.78101328149E+03  0.78168012549E+03  0.26309483820E+01 0.  0.
         13    1    3    3    0    0  0.29321437866E+02  0.92554889874E+01 -0.75632894567E+03  0.75695368739E+03  0.00000000000E+00 0.  1.
          1    1    3    3  501    0  0.14255331642E+01  0.21945736671E+00 -0.24684335813E+02  0.24726438095E+02  0.00000000000E+00 0.  1.
         -3    1    1    2    0  502 -0.30746971030E+02 -0.94749463541E+01 -0.21746974377E+03  0.21983684925E+03  0.00000000000E+00 0. -1.
<mgrwt>
<rscale>  1 0.30000000E+03</rscale>
<asrwt>0</asrwt>
<pdfrwt beam="1">  1       21 0.55162834E-02 0.30000000E+03</pdfrwt>
<pdfrwt beam="2">0</pdfrwt>
<totfact> 0.24350390E+04</totfact>
</mgrwt>
</event>
<event>
 6    1  0.1273846E-001  0.3000000E+03  0.7818608E-02  0.1093470E+00
         21   -1    0    0  501  502  0.00000000000E+00  0.00000000000E+00  0.17862742551E+01  0.17862742551E+01  0.00000000000E+00 0. -1.
         13   -1    0    0    0    0 -0.00000000000E+00 -0.00000000000E+00 -0.10000000000E+04  0.10000000000E+04  0.00000000000E+00 0.  1.
    9000005    2    1    2  501    0  0.37393914314E+02  0.13124254274E+00 -0.73147831570E+03  0.73244244005E+03  0.36165723117E+01 0.  0.
         13    1    3    3    0    0  0.37267100708E+02  0.35377666016E+00 -0.72261919810E+03  0.72357962065E+03  0.00000000000E+00 0.  1.
          1    1    3    3  501    0  0.12681360576E+00 -0.22253411742E+00 -0.88591176001E+01  0.88628194034E+01  0.00000000000E+00 0.  1.
         -1    1    1    2    0  502 -0.37393914314E+02 -0.13124254274E+00 -0.26673541005E+03  0.26934383421E+03  0.00000000000E+00 0. -1.
<mgrwt>
<rscale>  1 0.30000000E+03</rscale>
<asrwt>0</asrwt>
<pdfrwt beam="1">  1       21 0.64955564E-02 0.30000000E+03</pdfrwt>
<pdfrwt beam="2">0</pdfrwt>
<totfact> 0.18371784E+04</totfact>
</mgrwt>
</event>
<event>
 6    1  0.1273846E-001  0.3000000E+03  0.7818608E-02  0.1093470E+00
         21   -1    0    0  501  502  0.00000000000E+00  0.00000000000E+00  0.29420803410E+01  0.29420803410E+01  0.00000000000E+00 0. -1.
         13   -1    0    0    0    0 -0.00000000000E+00 -0.00000000000E+00 -0.10000000000E+04  0.10000000000E+04  0.00000000000E+00 0.  1.
    9000005    2    1    2  501    0 -0.11587631669E+02 -0.47202698049E+02 -0.72037714306E+03  0.72202461907E+03  0.37355562781E+01 0.  0.
         13    1    3    3    0    0 -0.13041223274E+01 -0.97667169205E+01 -0.16216332968E+03  0.16246241100E+03  0.00000000000E+00 0.  1.
          3    1    3    3  501    0 -0.10283509341E+02 -0.37435981128E+02 -0.55821381338E+03  0.55956220807E+03  0.00000000000E+00 0.  1.
         -1    1    1    2    0  502  0.11587631669E+02  0.47202698049E+02 -0.27668077660E+03  0.28091746128E+03  0.00000000000E+00 0. -1.
<mgrwt>
<rscale>  1 0.30000000E+03</rscale>
<asrwt>0</asrwt>
<pdfrwt beam="1">  1       21 0.10698497E-01 0.30000000E+03</pdfrwt>
<pdfrwt beam="2">0</pdfrwt>
<totfact> 0.76234157E+03</totfact>
</mgrwt>
</event>
<event>
 6    1  0.1273846E-001  0.3000000E+03  0.7818608E-02  0.1093470E+00
         21   -1    0    0  501  502  0.00000000000E+00  0.00000000000E+00  0.24217265198E+01  0.24217265198E+01  0.00000000000E+00 0. -1.
         13   -1    0    0    0    0 -0.00000000000E+00 -0.00000000000E+00 -0.10000000000E+04  0.10000000000E+04  0.00000000000E+00 0.  1.
    9000005    2    1    2  501    0 -0.28049658210E+02  0.17744950884E+02 -0.86867983478E+03  0.86931848048E+03  0.28807185520E+01 0.  0.
         13    1    3    3    0    0 -0.12543757250E+02  0.85440857880E+01 -0.36230878007E+03  0.36262652876E+03  0.00000000000E+00 0.  1.
          3    1    3    3  501    0 -0.15505900960E+02  0.92008650956E+01 -0.50637105472E+03  0.50669195172E+03  0.00000000000E+00 0.  1.
         -1    1    1    2    0  502  0.28049658210E+02 -0.17744950884E+02 -0.12889843870E+03  0.13310324604E+03  0.00000000000E+00 0. -1.
<mgrwt>
<rscale>  1 0.30000000E+03</rscale>
<asrwt>0</asrwt>
<pdfrwt beam="1">  1       21 0.88062968E-02 0.30000000E+03</pdfrwt>
<pdfrwt beam="2">0</pdfrwt>
<totfact> 0.10785542E+04</totfact>
</mgrwt>
</event>
<event>
 6    1  0.1273846E-001  0.3000000E+03  0.7818608E-02  0.1093470E+00
         21   -1    0    0  501  502  0.00000000000E+00  0.00000000000E+00  0.98128757660E+00  0.98128757660E+00  0.00000000000E+00 0. -1.
         13   -1    0    0    0    0 -0.00000000000E+00 -0.00000000000E+00 -0.10000000000E+04  0.10000000000E+04  0.00000000000E+00 0.  1.
    9000005    2    1    2  501    0 -0.17278028181E+01 -0.31101172574E+02 -0.47147949463E+03  0.47252325277E+03  0.38784425818E+01 0.  0.
         13    1    3    3    0    0 -0.55613130426E+00 -0.24665771392E+02 -0.35071978008E+03  0.35158650955E+03  0.00000000000E+00 0.  1.
          3    1    3    3  501    0 -0.11716715139E+01 -0.64354011825E+01 -0.12075971455E+03  0.12093674322E+03  0.00000000000E+00 0.  1.
         -3    1    1    2    0  502  0.17278028181E+01  0.31101172574E+02 -0.52753921779E+03  0.52845803480E+03  0.00000000000E+00 0. -1.
<mgrwt>
<rscale>  1 0.30000000E+03</rscale>
<asrwt>0</asrwt>
<pdfrwt beam="1">  1       21 0.35683260E-02 0.30000000E+03</pdfrwt>
<pdfrwt beam="2">0</pdfrwt>
<totfact> 0.50939555E+04</totfact>
</mgrwt>
</event>
<event>
 6    1  0.1273846E-001  0.3000000E+03  0.7818608E-02  0.1093470E+00
         21   -1    0    0  501  502  0.00000000000E+00  0.00000000000E+00  0.14528844272E+02  0.14528844272E+02  0.00000000000E+00 0. -1.
         13   -1    0    0    0    0 -0.00000000000E+00 -0.00000000000E+00 -0.10000000000E+04  0.10000000000E+04  0.00000000000E+00 0.  1.
    9000005    2    1    2  501    0  0.33375059913E+02  0.23937078649E+01 -0.98003953731E+03  0.98063006937E+03  0.61817309643E+01 0.  0.
         13    1    3    3    0    0  0.13943858636E+02  0.26551779368E+01 -0.48950036228E+03  0.48970612191E+03  0.00000000000E+00 0.  1.
          1    1    3    3  501    0  0.19431201276E+02 -0.26147007189E+00 -0.49053917503E+03  0.49092394746E+03  0.00000000000E+00 0.  1.
         -3    1    1    2    0  502 -0.33375059913E+02 -0.23937078649E+01 -0.54316184210E+01  0.33898774907E+02  0.00000000000E+00 0. -1.
<mgrwt>
<rscale>  1 0.30000000E+03</rscale>
<asrwt>0</asrwt>
<pdfrwt beam="1">  1       21 0.52832272E-01 0.30000000E+03</pdfrwt>
<pdfrwt beam="2">0</pdfrwt>
<totfact> 0.33317393E+02</totfact>
</mgrwt>
</event>
<event>
 6    1  0.1273846E-001  0.3000000E+03  0.7818608E-02  0.1093470E+00
         21   -1    0    0  501  502  0.00000000000E+00  0.00000000000E+00  0.29365740901E+01  0.29365740901E+01  0.00000000000E+00 0. -1.
         13   -1    0    0    0    0 -0.00000000000E+00 -0.00000000000E+00 -0.10000000000E+04  0.10000000000E+04  0.00000000000E+00 0.  1.
    9000005    2    1    2  501    0 -0.29153850845E+02  0.24638244098E+02 -0.85420266957E+03  0.85506437998E+03  0.39878697296E+01 0.  0.
         13    1    3    3    0    0 -0.12318987205E+01  0.22906045781E+01 -0.63897171532E+02  0.63950081888E+02  0.00000000000E+00 0.  1.
          1    1    3    3  501    0 -0.27921952124E+02  0.22347639520E+02 -0.79030549804E+03  0.79111429809E+03  0.00000000000E+00 0.  1.
         -3    1    1    2    0  502  0.29153850845E+02 -0.24638244098E+02 -0.14286075634E+03  0.14787219411E+03  0.00000000000E+00 0. -1.
<mgrwt>
<rscale>  1 0.30000000E+03</rscale>
<asrwt>0</asrwt>
<pdfrwt beam="1">  1       21 0.10678474E-01 0.30000000E+03</pdfrwt>
<pdfrwt beam="2">0</pdfrwt>
<totfact> 0.76490923E+03</totfact>
</mgrwt>
</event>
<event>
 6    1  0.1273846E-001  0.3000000E+03  0.7818608E-02  0.1093470E+00
         21   -1    0    0  501  502  0.00000000000E+00  0.00000000000E+00  0.54593804189E+01  0.54593804189E+01  0.00000000000E+00 0. -1.
         13   -1    0    0    0    0 -0.00000000000E+00 -0.00000000000E+00 -0.10000000000E+04  0.10000000000E+04  0.00000000000E+00 0.  1.
    9000005    2    1    2  501    0  0.50264361893E+01  0.60980940270E+02 -0.77798171658E+03  0.78042227547E+03  0.77095117930E+01 0.  0.
         13    1    3    3    0    0  0.14617554753E+01  0.22164990986E+02 -0.33077648346E+03  0.33152150091E+03  0.00000000000E+00 0.  1.
          1    1    3    3  501    0  0.35646807140E+01  0.38815949284E+02 -0.44720523312E+03  0.44890077456E+03  0.00000000000E+00 0.  1.
         -1    1    1    2    0  502 -0.50264361893E+01 -0.60980940270E+02 -0.21655890300E+03  0.22503710495E+03  0.00000000000E+00 0. -1.
<mgrwt>
<rscale>  1 0.30000000E+03</rscale>
<asrwt>0</asrwt>
<pdfrwt beam="1">  1       21 0.19852334E-01 0.30000000E+03</pdfrwt>
<pdfrwt beam="2">0</pdfrwt>
<totfact> 0.24333861E+03</totfact>
</mgrwt>
</event>
<event>
 6    1  0.1273846E-001  0.3000000E+03  0.7818608E-02  0.1093470E+00
         21   -1    0    0  501  502  0.00000000000E+00  0.00000000000E+00  0.27953353254E+01  0.27953353254E+01  0.00000000000E+00 0. -1.
         13   -1    0    0    0    0 -0.00000000000E+00 -0.00000000000E+00 -0.10000000000E+04  0.10000000000E+04  0.00000000000E+00 0.  1.
    9000005    2    1    2  501    0 -0.29917496837E+02  0.26763318604E+02 -0.82468315626E+03  0.82566543185E+03  0.31249468441E+01 0.  0.
         13    1    3    3    0    0 -0.13481419962E+02  0.13365914510E+02 -0.36463887070E+03  0.36513271885E+03  0.00000000000E+00 0.  1.
          1    1    3    3  501    0 -0.16436076876E+02  0.13397404094E+02 -0.46004428556E+03  0.46053271299E+03  0.00000000000E+00 0.  1.
         -1    1    1    2    0  502  0.29917496837E+02 -0.26763318604E+02 -0.17252150842E+03  0.17712990348E+03  0.00000000000E+00 0. -1.
<mgrwt>
<rscale>  1 0.30000000E+03</rscale>
<asrwt>0</asrwt>
<pdfrwt beam="1">  1       21 0.10164877E-01 0.30000000E+03</pdfrwt>
<pdfrwt beam="2">0</pdfrwt>
<totfact> 0.83553229E+03</totfact>
</mgrwt>
</event>
<event>
 6    1  0.1273846E-001  0.3000000E+03  0.7818608E-02  0.1093470E+00
         21   -1    0    0  501  502  0.00000000000E+00  0.00000000000E+00  0.12086367915E+01  0.12086367915E+01  0.00000000000E+00 0. -1.
         13   -1    0    0    0    0 -0.00000000000E+00 -0.00000000000E+00 -0.10000000000E+04  0.10000000000E+04  0.00000000000E+00 0.  1.
    9000005    2    1    2  501    0 -0.24230052502E+02 -0.18142768834E+02 -0.74158711653E+03  0.74222933258E+03  0.60560069096E+01 0.  0.
         13    1    3    3    0    0 -0.79656226322E+01 -0.55002829382E+01 -0.17462490454E+03  0.17489300026E+03  0.00000000000E+00 0.  1.
          1    1    3    3  501    0 -0.16264429870E+02 -0.12642485896E+02 -0.56696221200E+03  0.56733633231E+03  0.00000000000E+00 0.  1.
         -3    1    1    2    0  502  0.24230052502E+02  0.18142768834E+02 -0.25720424667E+03  0.25897930422E+03  0.00000000000E+00 0. -1.
<mgrwt>
<rscale>  1 0.30000000E+03</rscale>
<asrwt>0</asrwt>
<pdfrwt beam="1">  1       21 0.43950521E-02 0.30000000E+03</pdfrwt>
<pdfrwt beam="2">0</pdfrwt>
<totfact> 0.35864693E+04</totfact>
</mgrwt>
</event>
<event>
 6    1  0.1273846E-001  0.3000000E+03  0.7818608E-02  0.1093470E+00
         21   -1    0    0  501  502  0.00000000000E+00  0.00000000000E+00  0.39322048944E+01  0.39322048944E+01  0.00000000000E+00 0. -1.
         13   -1    0    0    0    0 -0.00000000000E+00 -0.00000000000E+00 -0.10000000000E+04  0.10000000000E+04  0.00000000000E+00 0.  1.
    9000005    2    1    2  501    0 -0.24828359882E+02 -0.57373216829E+02 -0.46380857149E+03  0.46801428712E+03  0.32937062013E+01 0.  0.
         13    1    3    3    0    0 -0.37534042594E+01 -0.64698928293E+01 -0.60176823059E+02  0.60639900975E+02  0.00000000000E+00 0.  1.
          1    1    3    3  501    0 -0.21074955623E+02 -0.50903324000E+02 -0.40363174843E+03  0.40737438614E+03  0.00000000000E+00 0.  1.
         -3    1    1    2    0  502  0.24828359882E+02  0.57373216829E+02 -0.53225922362E+03  0.53591791778E+03  0.00000000000E+00 0. -1.
<mgrwt>
<rscale>  1 0.30000000E+03</rscale>
<asrwt>0</asrwt>
<pdfrwt beam="1">  1       21 0.14298957E-01 0.30000000E+03</pdfrwt>
<pdfrwt beam="2">0</pdfrwt>
<totfact> 0.44984214E+03</totfact>
</mgrwt>
</event>
<event>
 6    1  0.1273846E-001  0.3000000E+03  0.7818608E-02  0.1093470E+00
         21   -1    0    0  501  502  0.00000000000E+00  0.00000000000E+00  0.15696071025E+01  0.15696071025E+01  0.00000000000E+00 0. -1.
         13   -1    0    0    0    0 -0.00000000000E+00 -0.00000000000E+00 -0.10000000000E+04  0.10000000000E+04  0.00000000000E+00 0.  1.
    9000005    2    1    2  501    0 -0.33954254812E+02 -0.97715714984E+01 -0.27445275962E+03  0.27673032249E+03  0.26417974444E+01 0.  0.
         13    1    3    3    0    0 -0.15229929802E+02 -0.52773038271E+01 -0.11731221448E+03  0.11841434188E+03  0.00000000000E+00 0.  1.
          3    1    3    3  501    0 -0.18724325010E+02 -0.44942676713E+01 -0.15714054514E+03  0.15831598061E+03  0.00000000000E+00 0.  1.
         -1    1    1    2    0  502  0.33954254812E+02  0.97715714984E+01 -0.72397763328E+03  0.72483928461E+03  0.00000000000E+00 0. -1.
<mgrwt>
<rscale>  1 0.30000000E+03</rscale>
<asrwt>0</asrwt>
<pdfrwt beam="1">  1       21 0.57076742E-02 0.30000000E+03</pdfrwt>
<pdfrwt beam="2">0</pdfrwt>
<totfact> 0.22965065E+04</totfact>
</mgrwt>
</event>
<event>
 6    1  0.1273846E-001  0.3000000E+03  0.7818608E-02  0.1093470E+00
         21   -1    0    0  501  502  0.00000000000E+00  0.00000000000E+00  0.31644954946E+02  0.31644954946E+02  0.00000000000E+00 0. -1.
         13   -1    0    0    0    0 -0.00000000000E+00 -0.00000000000E+00 -0.10000000000E+04  0.10000000000E+04  0.00000000000E+00 0.  1.
    9000005    2    1    2  501    0 -0.65408018703E+02 -0.62789434623E+02 -0.92796041951E+03  0.93238545775E+03  0.33733703835E+01 0.  0.
         13    1    3    3    0    0 -0.97530147227E+01 -0.86190663603E+01 -0.12271767540E+03  0.12340598631E+03  0.00000000000E+00 0.  1.
          1    1    3    3  501    0 -0.55655003980E+02 -0.54170368263E+02 -0.80524274411E+03  0.80897947144E+03  0.00000000000E+00 0.  1.
         -3    1    1    2    0  502  0.65408018703E+02  0.62789434623E+02 -0.40394625540E+02  0.99259497195E+02  0.00000000000E+00 0. -1.
<mgrwt>
<rscale>  1 0.30000000E+03</rscale>
<asrwt>0</asrwt>
<pdfrwt beam="1">  1       21 0.11507281E+00 0.30000000E+03</pdfrwt>
<pdfrwt beam="2">0</pdfrwt>
<totfact> 0.50882850E+01</totfact>
</mgrwt>
</event>
<event>
 6    1  0.1273846E-001  0.3000000E+03  0.7818608E-02  0.1093470E+00
         21   -1    0    0  501  502  0.00000000000E+00  0.00000000000E+00  0.11118780926E+02  0.11118780926E+02  0.00000000000E+00 0. -1.
         13   -1    0    0    0    0 -0.00000000000E+00 -0.00000000000E+00 -0.10000000000E+04  0.10000000000E+04  0.00000000000E+00 0.  1.
    9000005    2    1    2  501    0  0.29151691180E+02  0.15725170993E+02 -0.97438319047E+03  0.97496224715E+03  0.56284450324E+01 0.  0.
         13    1    3    3    0    0  0.97220164262E+01  0.62223936364E+01 -0.26901147598E+03  0.26925900170E+03  0.00000000000E+00 0.  1.
          1    1    3    3  501    0  0.19429674754E+02  0.95027773568E+01 -0.70537171449E+03  0.70570324545E+03  0.00000000000E+00 0.  1.
         -3    1    1    2    0  502 -0.29151691180E+02 -0.15725170993E+02 -0.14498028604E+02  0.36156533778E+02  0.00000000000E+00 0. -1.
<mgrwt>
<rscale>  1 0.30000000E+03</rscale>
<asrwt>0</asrwt>
<pdfrwt beam="1">  1       21 0.40432016E-01 0.30000000E+03</pdfrwt>
<pdfrwt beam="2">0</pdfrwt>
<totfact> 0.59060826E+02</totfact>
</mgrwt>
</event>
<event>
 6    1  0.1273846E-001  0.3000000E+03  0.7818608E-02  0.1093470E+00
         21   -1    0    0  501  502  0.00000000000E+00  0.00000000000E+00  0.16432571118E+01  0.16432571118E+01  0.00000000000E+00 0. -1.
         13   -1    0    0    0    0 -0.00000000000E+00 -0.00000000000E+00 -0.10000000000E+04  0.10000000000E+04  0.00000000000E+00 0.  1.
    9000005    2    1    2  501    0  0.34074874213E+02  0.93007596461E+01 -0.25651097555E+03  0.25895708940E+03  0.36458735312E+01 0.  0.
         13    1    3    3    0    0  0.82189370542E+01  0.23745537566E+01 -0.74193916475E+02  0.74685518501E+02  0.00000000000E+00 0.  1.
          3    1    3    3  501    0  0.25855937159E+02  0.69262058895E+01 -0.18231705907E+03  0.18427157090E+03  0.00000000000E+00 0.  1.
         -1    1    1    2    0  502 -0.34074874213E+02 -0.93007596461E+01 -0.74184576734E+03  0.74268616771E+03  0.00000000000E+00 0. -1.
<mgrwt>
<rscale>  1 0.30000000E+03</rscale>
<asrwt>0</asrwt>
<pdfrwt beam="1">  1       21 0.59754930E-02 0.30000000E+03</pdfrwt>
<pdfrwt beam="2">0</pdfrwt>
<totfact> 0.21220918E+04</totfact>
</mgrwt>
</event>
<event>
 6    1  0.1273846E-001  0.3000000E+03  0.7818608E-02  0.1093470E+00
         21   -1    0    0  501  502  0.00000000000E+00  0.00000000000E+00  0.54823984409E+01  0.54823984409E+01  0.00000000000E+00 0. -1.
         13   -1    0    0    0    0 -0.00000000000E+00 -0.00000000000E+00 -0.10000000000E+04  0.10000000000E+04  0.00000000000E+00 0.  1.
    9000005    2    1    2  501    0 -0.32848645552E+02  0.59903866099E+02 -0.69050390653E+03  0.69388677354E+03  0.39626861029E+01 0.  0.
         13    1    3    3    0    0 -0.21492147487E+02  0.41475159711E+02 -0.48659719104E+03  0.48883425372E+03  0.00000000000E+00 0.  1.
          1    1    3    3  501    0 -0.11356498066E+02  0.18428706388E+02 -0.20390671548E+03  0.20505251982E+03  0.00000000000E+00 0.  1.
         -1    1    1    2    0  502  0.32848645552E+02 -0.59903866099E+02 -0.30401369503E+03  0.31159562490E+03  0.00000000000E+00 0. -1.
<mgrwt>
<rscale>  1 0.30000000E+03</rscale>
<asrwt>0</asrwt>
<pdfrwt beam="1">  1       21 0.19936036E-01 0.30000000E+03</pdfrwt>
<pdfrwt beam="2">0</pdfrwt>
<totfact> 0.24139351E+03</totfact>
</mgrwt>
</event>
<event>
 6    1  0.1273846E-001  0.3000000E+03  0.7818608E-02  0.1093470E+00
         21   -1    0    0  501  502  0.00000000000E+00  0.00000000000E+00  0.13671041662E+01  0.13671041662E+01  0.00000000000E+00 0. -1.
         13   -1    0    0    0    0 -0.00000000000E+00 -0.00000000000E+00 -0.10000000000E+04  0.10000000000E+04  0.00000000000E+00 0.  1.
    9000005    2    1    2  501    0 -0.31329068238E+02 -0.17640416840E+02 -0.38648800343E+03  0.38816724758E+03  0.28531516863E+01 0.  0.
         13    1    3    3    0    0 -0.27419939370E+02 -0.14510490409E+02 -0.32643038114E+03  0.32790120636E+03  0.00000000000E+00 0.  1.
          1    1    3    3  501    0 -0.39091288678E+01 -0.31299264316E+01 -0.60057622295E+02  0.60266041215E+02  0.00000000000E+00 0.  1.
         -3    1    1    2    0  502  0.31329068238E+02  0.17640416840E+02 -0.61214489240E+03  0.61319985659E+03  0.00000000000E+00 0. -1.
<mgrwt>
<rscale>  1 0.30000000E+03</rscale>
<asrwt>0</asrwt>
<pdfrwt beam="1">  1       21 0.49712984E-02 0.30000000E+03</pdfrwt>
<pdfrwt beam="2">0</pdfrwt>
<totfact> 0.29088692E+04</totfact>
</mgrwt>
</event>
<event>
 6    1  0.1273846E-001  0.3000000E+03  0.7818608E-02  0.1093470E+00
         21   -1    0    0  501  502  0.00000000000E+00  0.00000000000E+00  0.73192349000E+01  0.73192349000E+01  0.00000000000E+00 0. -1.
         13   -1    0    0    0    0 -0.00000000000E+00 -0.00000000000E+00 -0.10000000000E+04  0.10000000000E+04  0.00000000000E+00 0.  1.
    9000005    2    1    2  501    0 -0.27577156235E+02 -0.31768715124E+02 -0.93487379990E+03  0.93582520695E+03  0.31694510496E+01 0.  0.
         13    1    3    3    0    0 -0.17259025090E+02 -0.20782002908E+02 -0.56836359076E+03  0.56900521693E+03  0.00000000000E+00 0.  1.
          3    1    3    3  501    0 -0.10318131145E+02 -0.10986712216E+02 -0.36651020914E+03  0.36681999002E+03  0.00000000000E+00 0.  1.
         -1    1    1    2    0  502  0.27577156235E+02  0.31768715124E+02 -0.57806965199E+02  0.71494027948E+02  0.00000000000E+00 0. -1.
<mgrwt>
<rscale>  1 0.30000000E+03</rscale>
<asrwt>0</asrwt>
<pdfrwt beam="1">  1       21 0.26615456E-01 0.30000000E+03</pdfrwt>
<pdfrwt beam="2">0</pdfrwt>
<totfact> 0.13789704E+03</totfact>
</mgrwt>
</event>
<event>
 6    1  0.1273846E-001  0.3000000E+03  0.7818608E-02  0.1093470E+00
         21   -1    0    0  501  502  0.00000000000E+00  0.00000000000E+00  0.21523365514E+01  0.21523365514E+01  0.00000000000E+00 0. -1.
         13   -1    0    0    0    0 -0.00000000000E+00 -0.00000000000E+00 -0.10000000000E+04  0.10000000000E+04  0.00000000000E+00 0.  1.
    9000005    2    1    2  501    0  0.91272573814E+01  0.36339161739E+02 -0.79390362480E+03  0.79479512688E+03  0.35336574572E+01 0.  0.
         13    1    3    3    0    0  0.73881598978E+01  0.27309931020E+02 -0.62785429987E+03  0.62849139939E+03  0.00000000000E+00 0.  1.
          3    1    3    3  501    0  0.17390974836E+01  0.90292307189E+01 -0.16604932494E+03  0.16630372750E+03  0.00000000000E+00 0.  1.
         -3    1    1    2    0  502 -0.91272573814E+01 -0.36339161739E+02 -0.20394403864E+03  0.20735720967E+03  0.00000000000E+00 0. -1.
<mgrwt>
<rscale>  1 0.30000000E+03</rscale>
<asrwt>0</asrwt>
<pdfrwt beam="1">  1       21 0.78266949E-02 0.30000000E+03</pdfrwt>
<pdfrwt beam="2">0</pdfrwt>
<totfact> 0.13274528E+04</totfact>
</mgrwt>
</event>
<event>
 6    1  0.1273846E-001  0.3000000E+03  0.7818608E-02  0.1093470E+00
         21   -1    0    0  501  502  0.00000000000E+00  0.00000000000E+00  0.40748678507E+01  0.40748678507E+01  0.00000000000E+00 0. -1.
         13   -1    0    0    0    0 -0.00000000000E+00 -0.00000000000E+00 -0.10000000000E+04  0.10000000000E+04  0.00000000000E+00 0.  1.
    9000005    2    1    2  501    0 -0.16123719488E+02 -0.57495506895E+02 -0.67482902634E+03  0.67747355614E+03  0.32398825777E+01 0.  0.
         13    1    3    3    0    0 -0.61399646317E+01 -0.27882979375E+02 -0.32145496030E+03  0.32272039168E+03  0.00000000000E+00 0.  1.
          3    1    3    3  501    0 -0.99837548566E+01 -0.29612527519E+02 -0.35337406603E+03  0.35475316446E+03  0.00000000000E+00 0.  1.
         -3    1    1    2    0  502  0.16123719488E+02  0.57495506895E+02 -0.32109610581E+03  0.32660131171E+03  0.00000000000E+00 0. -1.
<mgrwt>
<rscale>  1 0.30000000E+03</rscale>
<asrwt>0</asrwt>
<pdfrwt beam="1">  1       21 0.14817733E-01 0.30000000E+03</pdfrwt>
<pdfrwt beam="2">0</pdfrwt>
<totfact> 0.42122134E+03</totfact>
</mgrwt>
</event>
<event>
 6    1  0.1273846E-001  0.3000000E+03  0.7818608E-02  0.1093470E+00
         21   -1    0    0  501  502  0.00000000000E+00  0.00000000000E+00  0.16683144899E+01  0.16683144899E+01  0.00000000000E+00 0. -1.
         13   -1    0    0    0    0 -0.00000000000E+00 -0.00000000000E+00 -0.10000000000E+04  0.10000000000E+04  0.00000000000E+00 0.  1.
    9000005    2    1    2  501    0  0.21985987590E+02 -0.25186986265E+02 -0.78641629430E+03  0.78713183517E+03  0.28583333859E+01 0.  0.
         13    1    3    3    0    0  0.11100448223E+02 -0.10765135147E+02 -0.34817147050E+03  0.34851467825E+03  0.00000000000E+00 0.  1.
          3    1    3    3  501    0  0.10885539366E+02 -0.14421851119E+02 -0.43824482379E+03  0.43861715691E+03  0.00000000000E+00 0.  1.
         -3    1    1    2    0  502 -0.21985987590E+02  0.25186986265E+02 -0.21191539121E+03  0.21453647932E+03  0.00000000000E+00 0. -1.
<mgrwt>
<rscale>  1 0.30000000E+03</rscale>
<asrwt>0</asrwt>
<pdfrwt beam="1">  1       21 0.60666109E-02 0.30000000E+03</pdfrwt>
<pdfrwt beam="2">0</pdfrwt>
<totfact> 0.20674144E+04</totfact>
</mgrwt>
</event>
<event>
 6    1  0.1273846E-001  0.3000000E+03  0.7818608E-02  0.1093470E+00
         21   -1    0    0  501  502  0.00000000000E+00  0.00000000000E+00  0.80574955909E+01  0.80574955909E+01  0.00000000000E+00 0. -1.
         13   -1    0    0    0    0 -0.00000000000E+00 -0.00000000000E+00 -0.10000000000E+04  0.10000000000E+04  0.00000000000E+00 0.  1.
    9000005    2    1    2  501    0  0.31151751064E+02 -0.76677439025E+01 -0.96668537013E+03  0.96722676301E+03  0.42166777337E+01 0.  0.
         13    1    3    3    0    0  0.15569792735E+02 -0.58433088697E+01 -0.47369737833E+03  0.47398920762E+03  0.00000000000E+00 0.  1.
          3    1    3    3  501    0  0.15581958329E+02 -0.18244350328E+01 -0.49298799180E+03  0.49323755539E+03  0.00000000000E+00 0.  1.
         -3    1    1    2    0  502 -0.31151751064E+02  0.76677439025E+01 -0.25257134276E+02  0.40830732577E+02  0.00000000000E+00 0. -1.
<mgrwt>
<rscale>  1 0.30000000E+03</rscale>
<asrwt>0</asrwt>
<pdfrwt beam="1">  1       21 0.29300046E-01 0.30000000E+03</pdfrwt>
<pdfrwt beam="2">0</pdfrwt>
<totfact> 0.11397714E+03</totfact>
</mgrwt>
</event>
<event>
 6    1  0.1273846E-001  0.3000000E+03  0.7818608E-02  0.1093470E+00
         21   -1    0    0  501  502  0.00000000000E+00  0.00000000000E+00  0.49371362803E+01  0.49371362803E+01  0.00000000000E+00 0. -1.
         13   -1    0    0    0    0 -0.00000000000E+00 -0.00000000000E+00 -0.10000000000E+04  0.10000000000E+04  0.00000000000E+00 0.  1.
    9000005    2    1    2  501    0 -0.37778323864E+02  0.36038484092E+02 -0.83363112287E+03  0.83527222818E+03  0.35877636112E+01 0.  0.
         13    1    3    3    0    0 -0.62627717773E+01  0.52407735423E+01 -0.11243449609E+03  0.11273066986E+03  0.00000000000E+00 0.  1.
          3    1    3    3  501    0 -0.31515552087E+02  0.30797710550E+02 -0.72119662679E+03  0.72254155831E+03  0.00000000000E+00 0.  1.
         -1    1    1    2    0  502  0.37778323864E+02 -0.36038484092E+02 -0.16143174085E+03  0.16966490810E+03  0.00000000000E+00 0. -1.
<mgrwt>
<rscale>  1 0.30000000E+03</rscale>
<asrwt>0</asrwt>
<pdfrwt beam="1">  1       21 0.17953261E-01 0.30000000E+03</pdfrwt>
<pdfrwt beam="2">0</pdfrwt>
<totfact> 0.29439311E+03</totfact>
</mgrwt>
</event>
<event>
 6    1  0.1273846E-001  0.3000000E+03  0.7818608E-02  0.1093470E+00
         21   -1    0    0  501  502  0.00000000000E+00  0.00000000000E+00  0.12911856011E+01  0.12911856011E+01  0.00000000000E+00 0. -1.
         13   -1    0    0    0    0 -0.00000000000E+00 -0.00000000000E+00 -0.10000000000E+04  0.10000000000E+04  0.00000000000E+00 0.  1.
    9000005    2    1    2  501    0 -0.26230940781E+02 -0.24220397304E+02 -0.45938553829E+03  0.46078745198E+03  0.39132106148E+01 0.  0.
         13    1    3    3    0    0 -0.78025213443E+01 -0.58852791460E+01 -0.10775901007E+03  0.10820129436E+03  0.00000000000E+00 0.  1.
          3    1    3    3  501    0 -0.18428419437E+02 -0.18335118158E+02 -0.35162652822E+03  0.35258615763E+03  0.00000000000E+00 0.  1.
         -1    1    1    2    0  502  0.26230940781E+02  0.24220397304E+02 -0.53932327611E+03  0.54050373362E+03  0.00000000000E+00 0. -1.
<mgrwt>
<rscale>  1 0.30000000E+03</rscale>
<asrwt>0</asrwt>
<pdfrwt beam="1">  1       21 0.46952303E-02 0.30000000E+03</pdfrwt>
<pdfrwt beam="2">0</pdfrwt>
<totfact> 0.32059630E+04</totfact>
</mgrwt>
</event>
<event>
 6    1  0.1273846E-001  0.3000000E+03  0.7818608E-02  0.1093470E+00
         21   -1    0    0  501  502  0.00000000000E+00  0.00000000000E+00  0.10336935408E+01  0.10336935408E+01  0.00000000000E+00 0. -1.
         13   -1    0    0    0    0 -0.00000000000E+00 -0.00000000000E+00 -0.10000000000E+04  0.10000000000E+04  0.00000000000E+00 0.  1.
    9000005    2    1    2  501    0  0.11308243427E+02  0.28807654094E+02 -0.37260384114E+03  0.37390715506E+03  0.38962636497E+01 0.  0.
         13    1    3    3    0    0  0.11394728339E+02  0.26707698421E+02 -0.35241480513E+03  0.35360901553E+03  0.00000000000E+00 0.  1.
          1    1    3    3  501    0 -0.86484912565E-01  0.20999556726E+01 -0.20189036013E+02  0.20298139535E+02  0.00000000000E+00 0.  1.
         -3    1    1    2    0  502 -0.11308243427E+02 -0.28807654094E+02 -0.62636246532E+03  0.62712653848E+03  0.00000000000E+00 0. -1.
<mgrwt>
<rscale>  1 0.30000000E+03</rscale>
<asrwt>0</asrwt>
<pdfrwt beam="1">  1       21 0.37588935E-02 0.30000000E+03</pdfrwt>
<pdfrwt beam="2">0</pdfrwt>
<totfact> 0.46681204E+04</totfact>
</mgrwt>
</event>
<event>
 6    1  0.1273846E-001  0.3000000E+03  0.7818608E-02  0.1093470E+00
         21   -1    0    0  501  502  0.00000000000E+00  0.00000000000E+00  0.10466822262E+01  0.10466822262E+01  0.00000000000E+00 0. -1.
         13   -1    0    0    0    0 -0.00000000000E+00 -0.00000000000E+00 -0.10000000000E+04  0.10000000000E+04  0.00000000000E+00 0.  1.
    9000005    2    1    2  501    0 -0.56371668105E+01  0.31358300632E+02 -0.57632137469E+03  0.57721548944E+03  0.40340613070E+01 0.  0.
         13    1    3    3    0    0 -0.20927684367E+01  0.21588415007E+02 -0.40161904070E+03  0.40220429286E+03  0.00000000000E+00 0.  1.
          3    1    3    3  501    0 -0.35443983738E+01  0.97698856250E+01 -0.17470233399E+03  0.17501119658E+03  0.00000000000E+00 0.  1.
         -3    1    1    2    0  502  0.56371668105E+01 -0.31358300632E+02 -0.42263194308E+03  0.42383119279E+03  0.00000000000E+00 0. -1.
<mgrwt>
<rscale>  1 0.30000000E+03</rscale>
<asrwt>0</asrwt>
<pdfrwt beam="1">  1       21 0.38061252E-02 0.30000000E+03</pdfrwt>
<pdfrwt beam="2">0</pdfrwt>
<totfact> 0.45712211E+04</totfact>
</mgrwt>
</event>
<event>
 6    1  0.1273846E-001  0.3000000E+03  0.7818608E-02  0.1093470E+00
         21   -1    0    0  501  502  0.00000000000E+00  0.00000000000E+00  0.25263369765E+01  0.25263369765E+01  0.00000000000E+00 0. -1.
         13   -1    0    0    0    0 -0.00000000000E+00 -0.00000000000E+00 -0.10000000000E+04  0.10000000000E+04  0.00000000000E+00 0.  1.
    9000005    2    1    2  501    0 -0.36812022967E+02  0.14394704132E+02 -0.19019549608E+03  0.19428109489E+03  0.29128264921E+01 0.  0.
         13    1    3    3    0    0 -0.21078161064E+02  0.69543946229E+01 -0.11054105043E+03  0.11274740045E+03  0.00000000000E+00 0.  1.
          1    1    3    3  501    0 -0.15733861903E+02  0.74403095094E+01 -0.79654445658E+02  0.81533694441E+02  0.00000000000E+00 0.  1.
         -3    1    1    2    0  502  0.36812022967E+02 -0.14394704132E+02 -0.80727816694E+03  0.80824524209E+03  0.00000000000E+00 0. -1.
<mgrwt>
<rscale>  1 0.30000000E+03</rscale>
<asrwt>0</asrwt>
<pdfrwt beam="1">  1       21 0.91866993E-02 0.30000000E+03</pdfrwt>
<pdfrwt beam="2">0</pdfrwt>
<totfact> 0.10007010E+04</totfact>
</mgrwt>
</event>
<event>
 6    1  0.1273846E-001  0.3000000E+03  0.7818608E-02  0.1093470E+00
         21   -1    0    0  501  502  0.00000000000E+00  0.00000000000E+00  0.12837075717E+01  0.12837075717E+01  0.00000000000E+00 0. -1.
         13   -1    0    0    0    0 -0.00000000000E+00 -0.00000000000E+00 -0.10000000000E+04  0.10000000000E+04  0.00000000000E+00 0.  1.
    9000005    2    1    2  501    0  0.79357076276E+01 -0.29144821499E+02 -0.76837060119E+03  0.76896596493E+03  0.16965748950E+01 0.  0.
         13    1    3    3    0    0  0.24829470537E+01 -0.11984556602E+02 -0.30193287706E+03  0.30218083472E+03  0.00000000000E+00 0.  1.
          1    1    3    3  501    0  0.54527605739E+01 -0.17160264897E+02 -0.46643772413E+03  0.46678513020E+03  0.00000000000E+00 0.  1.
         -3    1    1    2    0  502 -0.79357076276E+01  0.29144821499E+02 -0.23034569124E+03  0.23231774265E+03  0.00000000000E+00 0. -1.
<mgrwt>
<rscale>  1 0.30000000E+03</rscale>
<asrwt>0</asrwt>
<pdfrwt beam="1">  1       21 0.46680374E-02 0.30000000E+03</pdfrwt>
<pdfrwt beam="2">0</pdfrwt>
<totfact> 0.32377763E+04</totfact>
</mgrwt>
</event>
<event>
 6    1  0.1273846E-001  0.3000000E+03  0.7818608E-02  0.1093470E+00
         21   -1    0    0  501  502  0.00000000000E+00  0.00000000000E+00  0.14793964398E+01  0.14793964398E+01  0.00000000000E+00 0. -1.
         13   -1    0    0    0    0 -0.00000000000E+00 -0.00000000000E+00 -0.10000000000E+04  0.10000000000E+04  0.00000000000E+00 0.  1.
    9000005    2    1    2  501    0 -0.22148972068E+02  0.30255802824E+02 -0.60231698134E+03  0.60350540127E+03  0.51993064525E+01 0.  0.
         13    1    3    3    0    0 -0.11314661899E+02  0.17968611354E+02 -0.37312579899E+03  0.37372952043E+03  0.00000000000E+00 0.  1.
          3    1    3    3  501    0 -0.10834310169E+02  0.12287191470E+02 -0.22919118235E+03  0.22977588085E+03  0.00000000000E+00 0.  1.
         -1    1    1    2    0  502  0.22148972068E+02 -0.30255802824E+02 -0.39620362222E+03  0.39797399517E+03  0.00000000000E+00 0. -1.
<mgrwt>
<rscale>  1 0.30000000E+03</rscale>
<asrwt>0</asrwt>
<pdfrwt beam="1">  1       21 0.53796348E-02 0.30000000E+03</pdfrwt>
<pdfrwt beam="2">0</pdfrwt>
<totfact> 0.25419815E+04</totfact>
</mgrwt>
</event>
<event>
 6    1  0.1273846E-001  0.3000000E+03  0.7818608E-02  0.1093470E+00
         21   -1    0    0  501  502  0.00000000000E+00  0.00000000000E+00  0.13968425844E+01  0.13968425844E+01  0.00000000000E+00 0. -1.
         13   -1    0    0    0    0 -0.00000000000E+00 -0.00000000000E+00 -0.10000000000E+04  0.10000000000E+04  0.00000000000E+00 0.  1.
    9000005    2    1    2  501    0  0.28592351341E+02  0.15440317523E+02 -0.73581247037E+03  0.73660471438E+03  0.10516070388E+02 0.  0.
         13    1    3    3    0    0  0.17541197556E+02  0.11799246668E+02 -0.36667709588E+03  0.36728600365E+03  0.00000000000E+00 0.  1.
          1    1    3    3  501    0  0.11051153785E+02  0.36410708542E+01 -0.36913537449E+03  0.36931871073E+03  0.00000000000E+00 0.  1.
         -1    1    1    2    0  502 -0.28592351341E+02 -0.15440317523E+02 -0.26279068704E+03  0.26479212820E+03  0.00000000000E+00 0. -1.
<mgrwt>
<rscale>  1 0.30000000E+03</rscale>
<asrwt>0</asrwt>
<pdfrwt beam="1">  1       21 0.50794383E-02 0.30000000E+03</pdfrwt>
<pdfrwt beam="2">0</pdfrwt>
<totfact> 0.28040647E+04</totfact>
</mgrwt>
</event>
<event>
 6    1  0.1273846E-001  0.3000000E+03  0.7818608E-02  0.1093470E+00
         21   -1    0    0  501  502  0.00000000000E+00  0.00000000000E+00  0.23080561360E+01  0.23080561360E+01  0.00000000000E+00 0. -1.
         13   -1    0    0    0    0 -0.00000000000E+00 -0.00000000000E+00 -0.10000000000E+04  0.10000000000E+04  0.00000000000E+00 0.  1.
    9000005    2    1    2  501    0 -0.20952862279E+02 -0.31034264959E+02 -0.18677582715E+03  0.19052785412E+03  0.36749896040E+01 0.  0.
         13    1    3    3    0    0 -0.10158327111E+02 -0.16620021852E+02 -0.88866301169E+02  0.90976020024E+02  0.00000000000E+00 0.  1.
          3    1    3    3  501    0 -0.10794535169E+02 -0.14414243108E+02 -0.97909525982E+02  0.99551834096E+02  0.00000000000E+00 0.  1.
         -1    1    1    2    0  502  0.20952862279E+02  0.31034264959E+02 -0.81091611671E+03  0.81178020202E+03  0.00000000000E+00 0. -1.
<mgrwt>
<rscale>  1 0.30000000E+03</rscale>
<asrwt>0</asrwt>
<pdfrwt beam="1">  1       21 0.83929491E-02 0.30000000E+03</pdfrwt>
<pdfrwt beam="2">0</pdfrwt>
<totfact> 0.11740629E+04</totfact>
</mgrwt>
</event>
<event>
 6    1  0.1273846E-001  0.3000000E+03  0.7818608E-02  0.1093470E+00
         21   -1    0    0  501  502  0.00000000000E+00  0.00000000000E+00  0.35417108769E+01  0.35417108769E+01  0.00000000000E+00 0. -1.
         13   -1    0    0    0    0 -0.00000000000E+00 -0.00000000000E+00 -0.10000000000E+04  0.10000000000E+04  0.00000000000E+00 0.  1.
    9000005    2    1    2  501    0  0.28948736274E+02 -0.18289882206E+02 -0.90852347682E+03  0.90917497766E+03  0.34180329539E+01 0.  0.
         13    1    3    3    0    0  0.37487973581E+01 -0.11018135660E+01 -0.10028093442E+03  0.10035702907E+03  0.00000000000E+00 0.  1.
          1    1    3    3  501    0  0.25199938916E+02 -0.17188068640E+02 -0.80824254240E+03  0.80881794860E+03  0.00000000000E+00 0.  1.
         -1    1    1    2    0  502 -0.28948736274E+02  0.18289882206E+02 -0.87934812300E+02  0.94366733213E+02  0.00000000000E+00 0. -1.
<mgrwt>
<rscale>  1 0.30000000E+03</rscale>
<asrwt>0</asrwt>
<pdfrwt beam="1">  1       21 0.12878976E-01 0.30000000E+03</pdfrwt>
<pdfrwt beam="2">0</pdfrwt>
<totfact> 0.54487698E+03</totfact>
</mgrwt>
</event>
<event>
 6    1  0.1273846E-001  0.3000000E+03  0.7818608E-02  0.1093470E+00
         21   -1    0    0  501  502  0.00000000000E+00  0.00000000000E+00  0.11788019223E+01  0.11788019223E+01  0.00000000000E+00 0. -1.
         13   -1    0    0    0    0 -0.00000000000E+00 -0.00000000000E+00 -0.10000000000E+04  0.10000000000E+04  0.00000000000E+00 0.  1.
    9000005    2    1    2  501    0  0.72913189436E+01 -0.33393803526E+02 -0.52111064937E+03  0.52224699280E+03  0.41597057987E+01 0.  0.
         13    1    3    3    0    0  0.56882440157E+01 -0.27735862564E+02 -0.40582922731E+03  0.40681567808E+03  0.00000000000E+00 0.  1.
          1    1    3    3  501    0  0.16030749280E+01 -0.56579409616E+01 -0.11528142206E+03  0.11543131472E+03  0.00000000000E+00 0.  1.
         -3    1    1    2    0  502 -0.72913189436E+01  0.33393803526E+02 -0.47771054870E+03  0.47893180912E+03  0.00000000000E+00 0. -1.
<mgrwt>
<rscale>  1 0.30000000E+03</rscale>
<asrwt>0</asrwt>
<pdfrwt beam="1">  1       21 0.42865615E-02 0.30000000E+03</pdfrwt>
<pdfrwt beam="2">0</pdfrwt>
<totfact> 0.37414260E+04</totfact>
</mgrwt>
</event>
<event>
 6    1  0.1273846E-001  0.3000000E+03  0.7818608E-02  0.1093470E+00
         21   -1    0    0  501  502  0.00000000000E+00  0.00000000000E+00  0.21703363618E+01  0.21703363618E+01  0.00000000000E+00 0. -1.
         13   -1    0    0    0    0 -0.00000000000E+00 -0.00000000000E+00 -0.10000000000E+04  0.10000000000E+04  0.00000000000E+00 0.  1.
    9000005    2    1    2  501    0 -0.30253139689E+02  0.61212639169E+01 -0.87351108254E+03  0.87407727668E+03  0.60623387277E+01 0.  0.
         13    1    3    3    0    0 -0.11310115439E+02  0.50218272410E+01 -0.31035253995E+03  0.31059915730E+03  0.00000000000E+00 0.  1.
          3    1    3    3  501    0 -0.18943024250E+02  0.10994366759E+01 -0.56315854259E+03  0.56347811938E+03  0.00000000000E+00 0.  1.
         -3    1    1    2    0  502  0.30253139689E+02 -0.61212639169E+01 -0.12431858109E+03  0.12809305968E+03  0.00000000000E+00 0. -1.
<mgrwt>
<rscale>  1 0.30000000E+03</rscale>
<asrwt>0</asrwt>
<pdfrwt beam="1">  1       21 0.78921489E-02 0.30000000E+03</pdfrwt>
<pdfrwt beam="2">0</pdfrwt>
<totfact> 0.13081946E+04</totfact>
</mgrwt>
</event>
<event>
 6    1  0.1273846E-001  0.3000000E+03  0.7818608E-02  0.1093470E+00
         21   -1    0    0  501  502  0.00000000000E+00  0.00000000000E+00  0.70310726597E+01  0.70310726597E+01  0.00000000000E+00 0. -1.
         13   -1    0    0    0    0 -0.00000000000E+00 -0.00000000000E+00 -0.10000000000E+04  0.10000000000E+04  0.00000000000E+00 0.  1.
    9000005    2    1    2  501    0  0.21558328291E+01  0.38080910510E+02 -0.94486924956E+03  0.94564392121E+03  0.31182686501E+01 0.  0.
         13    1    3    3    0    0  0.16043576913E+01  0.25767973101E+02 -0.67432625813E+03  0.67482032039E+03  0.00000000000E+00 0.  1.
          1    1    3    3  501    0  0.55147513789E+00  0.12312937409E+02 -0.27054299142E+03  0.27082360082E+03  0.00000000000E+00 0.  1.
         -3    1    1    2    0  502 -0.21558328291E+01 -0.38080910510E+02 -0.48099677784E+02  0.61387151452E+02  0.00000000000E+00 0. -1.
<mgrwt>
<rscale>  1 0.30000000E+03</rscale>
<asrwt>0</asrwt>
<pdfrwt beam="1">  1       21 0.25567591E-01 0.30000000E+03</pdfrwt>
<pdfrwt beam="2">0</pdfrwt>
<totfact> 0.14924336E+03</totfact>
</mgrwt>
</event>
<event>
 6    1  0.1273846E-001  0.3000000E+03  0.7818608E-02  0.1093470E+00
         21   -1    0    0  501  502  0.00000000000E+00  0.00000000000E+00  0.19748668520E+01  0.19748668520E+01  0.00000000000E+00 0. -1.
         13   -1    0    0    0    0 -0.00000000000E+00 -0.00000000000E+00 -0.10000000000E+04  0.10000000000E+04  0.00000000000E+00 0.  1.
    9000005    2    1    2  501    0 -0.34782283249E+02 -0.40493625096E+01 -0.80701539382E+03  0.80778185699E+03  0.33879255939E+01 0.  0.
         13    1    3    3    0    0 -0.75955643599E+01 -0.53096789896E+00 -0.20852634106E+03  0.20866530483E+03  0.00000000000E+00 0.  1.
          1    1    3    3  501    0 -0.27186718889E+02 -0.35183946106E+01 -0.59848905276E+03  0.59911655215E+03  0.00000000000E+00 0.  1.
         -1    1    1    2    0  502  0.34782283249E+02  0.40493625096E+01 -0.19100973932E+03  0.19419300987E+03  0.00000000000E+00 0. -1.
<mgrwt>
<rscale>  1 0.30000000E+03</rscale>
<asrwt>0</asrwt>
<pdfrwt beam="1">  1       21 0.71813492E-02 0.30000000E+03</pdfrwt>
<pdfrwt beam="2">0</pdfrwt>
<totfact> 0.15432076E+04</totfact>
</mgrwt>
</event>
<event>
 6    1  0.1273846E-001  0.3000000E+03  0.7818608E-02  0.1093470E+00
         21   -1    0    0  501  502  0.00000000000E+00  0.00000000000E+00  0.15878115286E+01  0.15878115286E+01  0.00000000000E+00 0. -1.
         13   -1    0    0    0    0 -0.00000000000E+00 -0.00000000000E+00 -0.10000000000E+04  0.10000000000E+04  0.00000000000E+00 0.  1.
    9000005    2    1    2  501    0 -0.28869234939E+02 -0.14447779055E+02 -0.79203072006E+03  0.79269673573E+03  0.36444847689E+01 0.  0.
         13    1    3    3    0    0 -0.24224001002E+02 -0.13156829510E+02 -0.65021793510E+03  0.65080201868E+03  0.00000000000E+00 0.  1.
          3    1    3    3  501    0 -0.46452339367E+01 -0.12909495452E+01 -0.14181278495E+03  0.14189471705E+03  0.00000000000E+00 0.  1.
         -3    1    1    2    0  502  0.28869234939E+02  0.14447779055E+02 -0.20638146841E+03  0.20889107580E+03  0.00000000000E+00 0. -1.
<mgrwt>
<rscale>  1 0.30000000E+03</rscale>
<asrwt>0</asrwt>
<pdfrwt beam="1">  1       21 0.57738723E-02 0.30000000E+03</pdfrwt>
<pdfrwt beam="2">0</pdfrwt>
<totfact> 0.22513914E+04</totfact>
</mgrwt>
</event>
<event>
 6    1  0.1273846E-001  0.3000000E+03  0.7818608E-02  0.1093470E+00
         21   -1    0    0  501  502  0.00000000000E+00  0.00000000000E+00  0.16966945509E+01  0.16966945509E+01  0.00000000000E+00 0. -1.
         13   -1    0    0    0    0 -0.00000000000E+00 -0.00000000000E+00 -0.10000000000E+04  0.10000000000E+04  0.00000000000E+00 0.  1.
    9000005    2    1    2  501    0 -0.17235403110E+02 -0.27768736526E+02 -0.80339351568E+03  0.80406575568E+03  0.35265538752E+01 0.  0.
         13    1    3    3    0    0 -0.57474088322E+01 -0.97649700848E+01 -0.23931626044E+03  0.23958434811E+03  0.00000000000E+00 0.  1.
          1    1    3    3  501    0 -0.11487994278E+02 -0.18003766441E+02 -0.56407725524E+03  0.56448140758E+03  0.00000000000E+00 0.  1.
         -3    1    1    2    0  502  0.17235403110E+02  0.27768736526E+02 -0.19490978977E+03  0.19763093887E+03  0.00000000000E+00 0. -1.
<mgrwt>
<rscale>  1 0.30000000E+03</rscale>
<asrwt>0</asrwt>
<pdfrwt beam="1">  1       21 0.61698114E-02 0.30000000E+03</pdfrwt>
<pdfrwt beam="2">0</pdfrwt>
<totfact> 0.20080891E+04</totfact>
</mgrwt>
</event>
<event>
 6    1  0.1273846E-001  0.3000000E+03  0.7818608E-02  0.1093470E+00
         21   -1    0    0  501  502  0.00000000000E+00  0.00000000000E+00  0.10625002697E+01  0.10625002697E+01  0.00000000000E+00 0. -1.
         13   -1    0    0    0    0 -0.00000000000E+00 -0.00000000000E+00 -0.10000000000E+04  0.10000000000E+04  0.00000000000E+00 0.  1.
    9000005    2    1    2  501    0 -0.85778060975E+01  0.29944760500E+02 -0.64386663041E+03  0.64462794853E+03  0.32690706362E+01 0.  0.
         13    1    3    3    0    0 -0.14424785544E+01  0.24949297559E+01 -0.47597629708E+02  0.47684796032E+02  0.00000000000E+00 0.  1.
          3    1    3    3  501    0 -0.71353275431E+01  0.27449830744E+02 -0.59626900071E+03  0.59694315249E+03  0.00000000000E+00 0.  1.
         -1    1    1    2    0  502  0.85778060975E+01 -0.29944760500E+02 -0.35507086932E+03  0.35643455174E+03  0.00000000000E+00 0. -1.
<mgrwt>
<rscale>  1 0.30000000E+03</rscale>
<asrwt>0</asrwt>
<pdfrwt beam="1">  1       21 0.38636455E-02 0.30000000E+03</pdfrwt>
<pdfrwt beam="2">0</pdfrwt>
<totfact> 0.44574180E+04</totfact>
</mgrwt>
</event>
<event>
 6    1  0.1273846E-001  0.3000000E+03  0.7818608E-02  0.1093470E+00
         21   -1    0    0  501  502  0.00000000000E+00  0.00000000000E+00  0.15597241217E+01  0.15597241217E+01  0.00000000000E+00 0. -1.
         13   -1    0    0    0    0 -0.00000000000E+00 -0.00000000000E+00 -0.10000000000E+04  0.10000000000E+04  0.00000000000E+00 0.  1.
    9000005    2    1    2  501    0 -0.32928565932E+02  0.21644181665E+02 -0.48808233742E+03  0.48968279907E+03  0.34805959303E+01 0.  0.
         13    1    3    3    0    0 -0.15078497735E+02  0.78511615351E+01 -0.21062429783E+03  0.21130924416E+03  0.00000000000E+00 0.  1.
          3    1    3    3  501    0 -0.17850068198E+02  0.13793020130E+02 -0.27745803959E+03  0.27837355490E+03  0.00000000000E+00 0.  1.
         -3    1    1    2    0  502  0.32928565932E+02 -0.21644181665E+02 -0.51035793846E+03  0.51187692505E+03  0.00000000000E+00 0. -1.
<mgrwt>
<rscale>  1 0.30000000E+03</rscale>
<asrwt>0</asrwt>
<pdfrwt beam="1">  1       21 0.56717360E-02 0.30000000E+03</pdfrwt>
<pdfrwt beam="2">0</pdfrwt>
<totfact> 0.23215814E+04</totfact>
</mgrwt>
</event>
<event>
 6    1  0.1273846E-001  0.3000000E+03  0.7818608E-02  0.1093470E+00
         21   -1    0    0  501  502  0.00000000000E+00  0.00000000000E+00  0.21252896854E+01  0.21252896854E+01  0.00000000000E+00 0. -1.
         13   -1    0    0    0    0 -0.00000000000E+00 -0.00000000000E+00 -0.10000000000E+04  0.10000000000E+04  0.00000000000E+00 0.  1.
    9000005    2    1    2  501    0  0.20731177977E+02  0.34866219268E+02 -0.73620248514E+03  0.73732765296E+03  0.35402980493E+01 0.  0.
         13    1    3    3    0    0  0.18136232119E+02  0.28659356672E+02 -0.63007449738E+03  0.63098665112E+03  0.00000000000E+00 0.  1.
          1    1    3    3  501    0  0.25949458580E+01  0.62068625956E+01 -0.10612798776E+03  0.10634100184E+03  0.00000000000E+00 0.  1.
         -3    1    1    2    0  502 -0.20731177977E+02 -0.34866219268E+02 -0.26167222518E+03  0.26479763673E+03  0.00000000000E+00 0. -1.
<mgrwt>
<rscale>  1 0.30000000E+03</rscale>
<asrwt>0</asrwt>
<pdfrwt beam="1">  1       21 0.77283424E-02 0.30000000E+03</pdfrwt>
<pdfrwt beam="2">0</pdfrwt>
<totfact> 0.13572227E+04</totfact>
</mgrwt>
</event>
<event>
 6    1  0.1273846E-001  0.3000000E+03  0.7818608E-02  0.1093470E+00
         21   -1    0    0  501  502  0.00000000000E+00  0.00000000000E+00  0.22271974454E+01  0.22271974454E+01  0.00000000000E+00 0. -1.
         13   -1    0    0    0    0 -0.00000000000E+00 -0.00000000000E+00 -0.10000000000E+04  0.10000000000E+04  0.00000000000E+00 0.  1.
    9000005    2    1    2  501    0 -0.22789349812E+02 -0.19723161574E+02 -0.88433086804E+03  0.88484989950E+03  0.31468878873E+01 0.  0.
         13    1    3    3    0    0 -0.87987919845E+01 -0.96153294546E+01 -0.36962002550E+03  0.36984974862E+03  0.00000000000E+00 0.  1.
          3    1    3    3  501    0 -0.13990557828E+02 -0.10107832120E+02 -0.51471084254E+03  0.51500015088E+03  0.00000000000E+00 0.  1.
         -1    1    1    2    0  502  0.22789349812E+02  0.19723161574E+02 -0.11344193451E+03  0.11737729795E+03  0.00000000000E+00 0. -1.
<mgrwt>
<rscale>  1 0.30000000E+03</rscale>
<asrwt>0</asrwt>
<pdfrwt beam="1">  1       21 0.80989169E-02 0.30000000E+03</pdfrwt>
<pdfrwt beam="2">0</pdfrwt>
<totfact> 0.12501006E+04</totfact>
</mgrwt>
</event>
<event>
 6    1  0.1273846E-001  0.3000000E+03  0.7818608E-02  0.1093470E+00
         21   -1    0    0  501  502  0.00000000000E+00  0.00000000000E+00  0.37598149093E+01  0.37598149093E+01  0.00000000000E+00 0. -1.
         13   -1    0    0    0    0 -0.00000000000E+00 -0.00000000000E+00 -0.10000000000E+04  0.10000000000E+04  0.00000000000E+00 0.  1.
    9000005    2    1    2  501    0  0.11073935602E+02  0.45576296655E+02 -0.82072884559E+03  0.82208961604E+03  0.59722641384E+01 0.  0.
         13    1    3    3    0    0  0.23704989256E+01  0.19225080846E+02 -0.37102551417E+03  0.37153082666E+03  0.00000000000E+00 0.  1.
          3    1    3    3  501    0  0.87034366762E+01  0.26351215809E+02 -0.44970333143E+03  0.45055878937E+03  0.00000000000E+00 0.  1.
         -1    1    1    2    0  502 -0.11073935602E+02 -0.45576296655E+02 -0.17551133950E+03  0.18167019887E+03  0.00000000000E+00 0. -1.
<mgrwt>
<rscale>  1 0.30000000E+03</rscale>
<asrwt>0</asrwt>
<pdfrwt beam="1">  1       21 0.13672083E-01 0.30000000E+03</pdfrwt>
<pdfrwt beam="2">0</pdfrwt>
<totfact> 0.48846029E+03</totfact>
</mgrwt>
</event>
<event>
 6    1  0.1273846E-001  0.3000000E+03  0.7818608E-02  0.1093470E+00
         21   -1    0    0  501  502  0.00000000000E+00  0.00000000000E+00  0.59929791966E+01  0.59929791966E+01  0.00000000000E+00 0. -1.
         13   -1    0    0    0    0 -0.00000000000E+00 -0.00000000000E+00 -0.10000000000E+04  0.10000000000E+04  0.00000000000E+00 0.  1.
    9000005    2    1    2  501    0 -0.19032497353E+02  0.24962081706E+02 -0.95676695891E+03  0.95728811611E+03  0.34902866203E+01 0.  0.
         13    1    3    3    0    0 -0.13847151415E+02  0.19259250416E+02 -0.67886604892E+03  0.67928033588E+03  0.00000000000E+00 0.  1.
          3    1    3    3  501    0 -0.51853459386E+01  0.57028312900E+01 -0.27790090999E+03  0.27800778023E+03  0.00000000000E+00 0.  1.
         -3    1    1    2    0  502  0.19032497353E+02 -0.24962081706E+02 -0.37240061890E+02  0.48704863086E+02  0.00000000000E+00 0. -1.
<mgrwt>
<rscale>  1 0.30000000E+03</rscale>
<asrwt>0</asrwt>
<pdfrwt beam="1">  1       21 0.21792698E-01 0.30000000E+03</pdfrwt>
<pdfrwt beam="2">0</pdfrwt>
<totfact> 0.20353409E+03</totfact>
</mgrwt>
</event>
<event>
 6    1  0.1273846E-001  0.3000000E+03  0.7818608E-02  0.1093470E+00
         21   -1    0    0  501  502  0.00000000000E+00  0.00000000000E+00  0.12959616555E+01  0.12959616555E+01  0.00000000000E+00 0. -1.
         13   -1    0    0    0    0 -0.00000000000E+00 -0.00000000000E+00 -0.10000000000E+04  0.10000000000E+04  0.00000000000E+00 0.  1.
    9000005    2    1    2  501    0 -0.17508626264E+02  0.31325933534E+02 -0.52121389156E+03  0.52245913519E+03  0.34294431904E+01 0.  0.
         13    1    3    3    0    0 -0.11713586405E+02  0.20752381689E+02 -0.32188260640E+03  0.32276350747E+03  0.00000000000E+00 0.  1.
          3    1    3    3  501    0 -0.57950398590E+01  0.10573551845E+02 -0.19933128516E+03  0.19969562772E+03  0.00000000000E+00 0.  1.
         -1    1    1    2    0  502  0.17508626264E+02 -0.31325933534E+02 -0.47749014678E+03  0.47883682647E+03  0.00000000000E+00 0. -1.
<mgrwt>
<rscale>  1 0.30000000E+03</rscale>
<asrwt>0</asrwt>
<pdfrwt beam="1">  1       21 0.47125978E-02 0.30000000E+03</pdfrwt>
<pdfrwt beam="2">0</pdfrwt>
<totfact> 0.31859000E+04</totfact>
</mgrwt>
</event>
<event>
 6    1  0.1273846E-001  0.3000000E+03  0.7818608E-02  0.1093470E+00
         21   -1    0    0  501  502  0.00000000000E+00  0.00000000000E+00  0.34587643694E+01  0.34587643694E+01  0.00000000000E+00 0. -1.
         13   -1    0    0    0    0 -0.00000000000E+00 -0.00000000000E+00 -0.10000000000E+04  0.10000000000E+04  0.00000000000E+00 0.  1.
    9000005    2    1    2  501    0 -0.33332641587E+02 -0.40871894008E+02 -0.71923774446E+03  0.72118442453E+03  0.47396642650E+01 0.  0.
         13    1    3    3    0    0 -0.21456603873E+02 -0.27336675340E+02 -0.44360562524E+03  0.44496475187E+03  0.00000000000E+00 0.  1.
          3    1    3    3  501    0 -0.11876037715E+02 -0.13535218668E+02 -0.27563211922E+03  0.27621967265E+03  0.00000000000E+00 0.  1.
         -1    1    1    2    0  502  0.33332641587E+02  0.40871894008E+02 -0.27730349117E+03  0.28227433984E+03  0.00000000000E+00 0. -1.
<mgrwt>
<rscale>  1 0.30000000E+03</rscale>
<asrwt>0</asrwt>
<pdfrwt beam="1">  1       21 0.12577352E-01 0.30000000E+03</pdfrwt>
<pdfrwt beam="2">0</pdfrwt>
<totfact> 0.56893943E+03</totfact>
</mgrwt>
</event>
<event>
 6    1  0.1273846E-001  0.3000000E+03  0.7818608E-02  0.1093470E+00
         21   -1    0    0  501  502  0.00000000000E+00  0.00000000000E+00  0.20973973578E+01  0.20973973578E+01  0.00000000000E+00 0. -1.
         13   -1    0    0    0    0 -0.00000000000E+00 -0.00000000000E+00 -0.10000000000E+04  0.10000000000E+04  0.00000000000E+00 0.  1.
    9000005    2    1    2  501    0  0.24707258051E+02 -0.36918352198E+02 -0.38105265095E+03  0.38364992487E+03  0.35677337327E+01 0.  0.
         13    1    3    3    0    0  0.40540578990E+01 -0.56670544095E+01 -0.49536460934E+02  0.50024112716E+02  0.00000000000E+00 0.  1.
          1    1    3    3  501    0  0.20653200152E+02 -0.31251297788E+02 -0.33151619002E+03  0.33362581215E+03  0.00000000000E+00 0.  1.
         -1    1    1    2    0  502 -0.24707258051E+02  0.36918352198E+02 -0.61684995169E+03  0.61844747249E+03  0.00000000000E+00 0. -1.
<mgrwt>
<rscale>  1 0.30000000E+03</rscale>
<asrwt>0</asrwt>
<pdfrwt beam="1">  1       21 0.76269156E-02 0.30000000E+03</pdfrwt>
<pdfrwt beam="2">0</pdfrwt>
<totfact> 0.13890156E+04</totfact>
</mgrwt>
</event>
<event>
 6    1  0.1273846E-001  0.3000000E+03  0.7818608E-02  0.1093470E+00
         21   -1    0    0  501  502  0.00000000000E+00  0.00000000000E+00  0.11153544756E+01  0.11153544756E+01  0.00000000000E+00 0. -1.
         13   -1    0    0    0    0 -0.00000000000E+00 -0.00000000000E+00 -0.10000000000E+04  0.10000000000E+04  0.00000000000E+00 0.  1.
    9000005    2    1    2  501    0 -0.81481584711E+01  0.31757279865E+02 -0.58968096111E+03  0.59060034543E+03  0.31960630690E+01 0.  0.
         13    1    3    3    0    0 -0.64571457799E+01  0.28668887192E+02 -0.51790761775E+03  0.51874068700E+03  0.00000000000E+00 0.  1.
          3    1    3    3  501    0 -0.16910126911E+01  0.30883926734E+01 -0.71773343361E+02  0.71859658436E+02  0.00000000000E+00 0.  1.
         -3    1    1    2    0  502  0.81481584711E+01 -0.31757279865E+02 -0.40920368441E+03  0.41051500904E+03  0.00000000000E+00 0. -1.
<mgrwt>
<rscale>  1 0.30000000E+03</rscale>
<asrwt>0</asrwt>
<pdfrwt beam="1">  1       21 0.40558430E-02 0.30000000E+03</pdfrwt>
<pdfrwt beam="2">0</pdfrwt>
<totfact> 0.41076643E+04</totfact>
</mgrwt>
</event>
<event>
 6    1  0.1273846E-001  0.3000000E+03  0.7818608E-02  0.1093470E+00
         21   -1    0    0  501  502  0.00000000000E+00  0.00000000000E+00  0.10859988872E+01  0.10859988872E+01  0.00000000000E+00 0. -1.
         13   -1    0    0    0    0 -0.00000000000E+00 -0.00000000000E+00 -0.10000000000E+04  0.10000000000E+04  0.00000000000E+00 0.  1.
    9000005    2    1    2  501    0  0.14821537534E+02 -0.28808416876E+02 -0.41604268392E+03  0.41731500332E+03  0.32702134634E+01 0.  0.
         13    1    3    3    0    0  0.45312422426E+01 -0.86440493714E+01 -0.10693944125E+03  0.10738387141E+03  0.00000000000E+00 0.  1.
          1    1    3    3  501    0  0.10290295292E+02 -0.20164367504E+02 -0.30910324267E+03  0.30993113191E+03  0.00000000000E+00 0.  1.
         -3    1    1    2    0  502 -0.14821537534E+02  0.28808416876E+02 -0.58287131719E+03  0.58377099557E+03  0.00000000000E+00 0. -1.
<mgrwt>
<rscale>  1 0.30000000E+03</rscale>
<asrwt>0</asrwt>
<pdfrwt beam="1">  1       21 0.39490952E-02 0.30000000E+03</pdfrwt>
<pdfrwt beam="2">0</pdfrwt>
<totfact> 0.42963794E+04</totfact>
</mgrwt>
</event>
<event>
 6    1  0.1273846E-001  0.3000000E+03  0.7818608E-02  0.1093470E+00
         21   -1    0    0  501  502  0.00000000000E+00  0.00000000000E+00  0.15824527176E+01  0.15824527176E+01  0.00000000000E+00 0. -1.
         13   -1    0    0    0    0 -0.00000000000E+00 -0.00000000000E+00 -0.10000000000E+04  0.10000000000E+04  0.00000000000E+00 0.  1.
    9000005    2    1    2  501    0 -0.34873798311E+02  0.13473361604E+02 -0.66881795009E+03  0.66986931196E+03  0.31195291522E+01 0.  0.
         13    1    3    3    0    0 -0.25082399365E+02  0.81642114991E+01 -0.46952517560E+03  0.47026553311E+03  0.00000000000E+00 0.  1.
          3    1    3    3  501    0 -0.97913989464E+01  0.53091501051E+01 -0.19929277449E+03  0.19960377885E+03  0.00000000000E+00 0.  1.
         -3    1    1    2    0  502  0.34873798311E+02 -0.13473361604E+02 -0.32959959720E+03  0.33171314076E+03  0.00000000000E+00 0. -1.
<mgrwt>
<rscale>  1 0.30000000E+03</rscale>
<asrwt>0</asrwt>
<pdfrwt beam="1">  1       21 0.57543857E-02 0.30000000E+03</pdfrwt>
<pdfrwt beam="2">0</pdfrwt>
<totfact> 0.22645300E+04</totfact>
</mgrwt>
</event>
<event>
 6    1  0.1273846E-001  0.3000000E+03  0.7818608E-02  0.1093470E+00
         21   -1    0    0  501  502  0.00000000000E+00  0.00000000000E+00  0.12358089527E+01  0.12358089527E+01  0.00000000000E+00 0. -1.
         13   -1    0    0    0    0 -0.00000000000E+00 -0.00000000000E+00 -0.10000000000E+04  0.10000000000E+04  0.00000000000E+00 0.  1.
    9000005    2    1    2  501    0  0.28451347525E+02  0.17107666242E+02 -0.66177538198E+03  0.66261565471E+03  0.32708189682E+01 0.  0.
         13    1    3    3    0    0  0.15677025394E+02  0.10234390633E+02 -0.40168141884E+03  0.40211748795E+03  0.00000000000E+00 0.  1.
          1    1    3    3  501    0  0.12774322131E+02  0.68732756099E+01 -0.26009396314E+03  0.26049816676E+03  0.00000000000E+00 0.  1.
         -3    1    1    2    0  502 -0.28451347525E+02 -0.17107666242E+02 -0.33698880907E+03  0.33862015424E+03  0.00000000000E+00 0. -1.
<mgrwt>
<rscale>  1 0.30000000E+03</rscale>
<asrwt>0</asrwt>
<pdfrwt beam="1">  1       21 0.44938602E-02 0.30000000E+03</pdfrwt>
<pdfrwt beam="2">0</pdfrwt>
<totfact> 0.34538111E+04</totfact>
</mgrwt>
</event>
<event>
 6    1  0.1273846E-001  0.3000000E+03  0.7818608E-02  0.1093470E+00
         21   -1    0    0  501  502  0.00000000000E+00  0.00000000000E+00  0.23461319360E+01  0.23461319360E+01  0.00000000000E+00 0. -1.
         13   -1    0    0    0    0 -0.00000000000E+00 -0.00000000000E+00 -0.10000000000E+04  0.10000000000E+04  0.00000000000E+00 0.  1.
    9000005    2    1    2  501    0 -0.56489593479E+01 -0.34578216453E+02 -0.84455751638E+03  0.84529182065E+03  0.36468874458E+01 0.  0.
         13    1    3    3    0    0 -0.33903194014E+01 -0.13194270804E+02 -0.29704941817E+03  0.29736163149E+03  0.00000000000E+00 0.  1.
          3    1    3    3  501    0 -0.22586399465E+01 -0.21383945649E+02 -0.54750809821E+03  0.54793018916E+03  0.00000000000E+00 0.  1.
         -1    1    1    2    0  502  0.56489593479E+01  0.34578216453E+02 -0.15309635168E+03  0.15705431128E+03  0.00000000000E+00 0. -1.
<mgrwt>
<rscale>  1 0.30000000E+03</rscale>
<asrwt>0</asrwt>
<pdfrwt beam="1">  1       21 0.85314068E-02 0.30000000E+03</pdfrwt>
<pdfrwt beam="2">0</pdfrwt>
<totfact> 0.11406825E+04</totfact>
</mgrwt>
</event>
<event>
 6    1  0.1273846E-001  0.3000000E+03  0.7818608E-02  0.1093470E+00
         21   -1    0    0  501  502  0.00000000000E+00  0.00000000000E+00  0.10587621758E+01  0.10587621758E+01  0.00000000000E+00 0. -1.
         13   -1    0    0    0    0 -0.00000000000E+00 -0.00000000000E+00 -0.10000000000E+04  0.10000000000E+04  0.00000000000E+00 0.  1.
    9000005    2    1    2  501    0  0.30241741923E+02  0.59271056161E+01 -0.65726945677E+03  0.65800002157E+03  0.33460501006E+01 0.  0.
         13    1    3    3    0    0  0.10615217904E+02  0.34783273857E+01 -0.25527285533E+03  0.25551714675E+03  0.00000000000E+00 0.  1.
          3    1    3    3  501    0  0.19626524019E+02  0.24487782304E+01 -0.40199660144E+03  0.40248287482E+03  0.00000000000E+00 0.  1.
         -3    1    1    2    0  502 -0.30241741923E+02 -0.59271056161E+01 -0.34167178105E+03  0.34305874060E+03  0.00000000000E+00 0. -1.
<mgrwt>
<rscale>  1 0.30000000E+03</rscale>
<asrwt>0</asrwt>
<pdfrwt beam="1">  1       21 0.38500524E-02 0.30000000E+03</pdfrwt>
<pdfrwt beam="2">0</pdfrwt>
<totfact> 0.44839072E+04</totfact>
</mgrwt>
</event>
<event>
 6    1  0.1273846E-001  0.3000000E+03  0.7818608E-02  0.1093470E+00
         21   -1    0    0  501  502  0.00000000000E+00  0.00000000000E+00  0.19469352802E+01  0.19469352802E+01  0.00000000000E+00 0. -1.
         13   -1    0    0    0    0 -0.00000000000E+00 -0.00000000000E+00 -0.10000000000E+04  0.10000000000E+04  0.00000000000E+00 0.  1.
    9000005    2    1    2  501    0 -0.10167240081E+02  0.41085581770E+02 -0.63566391936E+03  0.63709451241E+03  0.54223210461E+01 0.  0.
         13    1    3    3    0    0 -0.19586626300E+01  0.29330895808E+01 -0.41000594325E+02  0.41152012208E+02  0.00000000000E+00 0.  1.
          3    1    3    3  501    0 -0.82085774509E+01  0.38152492190E+02 -0.59466332503E+03  0.59594250020E+03  0.00000000000E+00 0.  1.
         -3    1    1    2    0  502  0.10167240081E+02 -0.41085581770E+02 -0.36238914536E+03  0.36485242287E+03  0.00000000000E+00 0. -1.
<mgrwt>
<rscale>  1 0.30000000E+03</rscale>
<asrwt>0</asrwt>
<pdfrwt beam="1">  1       21 0.70797796E-02 0.30000000E+03</pdfrwt>
<pdfrwt beam="2">0</pdfrwt>
<totfact> 0.15820030E+04</totfact>
</mgrwt>
</event>
<event>
 6    1  0.1273846E-001  0.3000000E+03  0.7818608E-02  0.1093470E+00
         21   -1    0    0  501  502  0.00000000000E+00  0.00000000000E+00  0.15404592607E+01  0.15404592607E+01  0.00000000000E+00 0. -1.
         13   -1    0    0    0    0 -0.00000000000E+00 -0.00000000000E+00 -0.10000000000E+04  0.10000000000E+04  0.00000000000E+00 0.  1.
    9000005    2    1    2  501    0 -0.12318878860E+02 -0.36965247003E+02 -0.54937386143E+03  0.55076764329E+03  0.38952540730E+01 0.  0.
         13    1    3    3    0    0 -0.11442516431E+02 -0.29604650025E+02 -0.44923149449E+03  0.45035130967E+03  0.00000000000E+00 0.  1.
          1    1    3    3  501    0 -0.87636242811E+00 -0.73605969780E+01 -0.10014236694E+03  0.10041633361E+03  0.00000000000E+00 0.  1.
         -1    1    1    2    0  502  0.12318878860E+02  0.36965247003E+02 -0.44908567931E+03  0.45077281598E+03  0.00000000000E+00 0. -1.
<mgrwt>
<rscale>  1 0.30000000E+03</rscale>
<asrwt>0</asrwt>
<pdfrwt beam="1">  1       21 0.56016819E-02 0.30000000E+03</pdfrwt>
<pdfrwt beam="2">0</pdfrwt>
<totfact> 0.23716829E+04</totfact>
</mgrwt>
</event>
<event>
 6    1  0.1273846E-001  0.3000000E+03  0.7818608E-02  0.1093470E+00
         21   -1    0    0  501  502  0.00000000000E+00  0.00000000000E+00  0.20411925177E+01  0.20411925177E+01  0.00000000000E+00 0. -1.
         13   -1    0    0    0    0 -0.00000000000E+00 -0.00000000000E+00 -0.10000000000E+04  0.10000000000E+04  0.00000000000E+00 0.  1.
    9000005    2    1    2  501    0 -0.25228869820E+02  0.27009716083E+02 -0.78661633862E+03  0.78749129208E+03  0.33541428250E+01 0.  0.
         13    1    3    3    0    0 -0.13038491582E+02  0.11630520807E+02 -0.38167385900E+03  0.38207356088E+03  0.00000000000E+00 0.  1.
          1    1    3    3  501    0 -0.12190378238E+02  0.15379195277E+02 -0.40494247962E+03  0.40541773120E+03  0.00000000000E+00 0.  1.
         -3    1    1    2    0  502  0.25228869820E+02 -0.27009716083E+02 -0.21134246886E+03  0.21454990044E+03  0.00000000000E+00 0. -1.
<mgrwt>
<rscale>  1 0.30000000E+03</rscale>
<asrwt>0</asrwt>
<pdfrwt beam="1">  1       21 0.74225339E-02 0.30000000E+03</pdfrwt>
<pdfrwt beam="2">0</pdfrwt>
<totfact> 0.14566801E+04</totfact>
</mgrwt>
</event>
<event>
 6    1  0.1273846E-001  0.3000000E+03  0.7818608E-02  0.1093470E+00
         21   -1    0    0  501  502  0.00000000000E+00  0.00000000000E+00  0.27938328727E+01  0.27938328727E+01  0.00000000000E+00 0. -1.
         13   -1    0    0    0    0 -0.00000000000E+00 -0.00000000000E+00 -0.10000000000E+04  0.10000000000E+04  0.00000000000E+00 0.  1.
    9000005    2    1    2  501    0 -0.46003047033E+02 -0.24233707486E+02 -0.58639499916E+03  0.58870523289E+03  0.33471284813E+01 0.  0.
         13    1    3    3    0    0 -0.15419599622E+02 -0.89233059257E+01 -0.21720719209E+03  0.21793658191E+03  0.00000000000E+00 0.  1.
          1    1    3    3  501    0 -0.30583447411E+02 -0.15310401560E+02 -0.36918780708E+03  0.37076865098E+03  0.00000000000E+00 0.  1.
         -3    1    1    2    0  502  0.46003047033E+02  0.24233707486E+02 -0.41081116796E+03  0.41408859998E+03  0.00000000000E+00 0. -1.
<mgrwt>
<rscale>  1 0.30000000E+03</rscale>
<asrwt>0</asrwt>
<pdfrwt beam="1">  1       21 0.10159414E-01 0.30000000E+03</pdfrwt>
<pdfrwt beam="2">0</pdfrwt>
<totfact> 0.83633613E+03</totfact>
</mgrwt>
</event>
<event>
 6    1  0.1273846E-001  0.3000000E+03  0.7818608E-02  0.1093470E+00
         21   -1    0    0  501  502  0.00000000000E+00  0.00000000000E+00  0.53255266868E+01  0.53255266868E+01  0.00000000000E+00 0. -1.
         13   -1    0    0    0    0 -0.00000000000E+00 -0.00000000000E+00 -0.10000000000E+04  0.10000000000E+04  0.00000000000E+00 0.  1.
    9000005    2    1    2  501    0  0.34146159416E+02 -0.41324235027E+02 -0.83827712050E+03  0.83999620512E+03  0.33824924389E+01 0.  0.
         13    1    3    3    0    0  0.22073801340E+02 -0.28385581021E+02 -0.54301371308E+03  0.54420298282E+03  0.00000000000E+00 0.  1.
          1    1    3    3  501    0  0.12072358075E+02 -0.12938654006E+02 -0.29526340742E+03  0.29579322230E+03  0.00000000000E+00 0.  1.
         -3    1    1    2    0  502 -0.34146159416E+02  0.41324235027E+02 -0.15639735281E+03  0.16532932157E+03  0.00000000000E+00 0. -1.
<mgrwt>
<rscale>  1 0.30000000E+03</rscale>
<asrwt>0</asrwt>
<pdfrwt beam="1">  1       21 0.19365592E-01 0.30000000E+03</pdfrwt>
<pdfrwt beam="2">0</pdfrwt>
<totfact> 0.25511272E+03</totfact>
</mgrwt>
</event>
<event>
 6    1  0.1273846E-001  0.3000000E+03  0.7818608E-02  0.1093470E+00
         21   -1    0    0  501  502  0.00000000000E+00  0.00000000000E+00  0.29578182418E+01  0.29578182418E+01  0.00000000000E+00 0. -1.
         13   -1    0    0    0    0 -0.00000000000E+00 -0.00000000000E+00 -0.10000000000E+04  0.10000000000E+04  0.00000000000E+00 0.  1.
    9000005    2    1    2  501    0 -0.47122526795E+01  0.32105533561E+02 -0.90083784511E+03  0.90142829051E+03  0.33420274060E+01 0.  0.
         13    1    3    3    0    0 -0.40209077381E+00  0.24891942422E+00 -0.14088510535E+02  0.14096445188E+02  0.00000000000E+00 0.  1.
          1    1    3    3  501    0 -0.43101619057E+01  0.31856614137E+02 -0.88674933457E+03  0.88733184533E+03  0.00000000000E+00 0.  1.
         -3    1    1    2    0  502  0.47122526795E+01 -0.32105533561E+02 -0.96204336649E+02  0.10152952773E+03  0.00000000000E+00 0. -1.
<mgrwt>
<rscale>  1 0.30000000E+03</rscale>
<asrwt>0</asrwt>
<pdfrwt beam="1">  1       21 0.10755725E-01 0.30000000E+03</pdfrwt>
<pdfrwt beam="2">0</pdfrwt>
<totfact> 0.75507423E+03</totfact>
</mgrwt>
</event>
<event>
 6    1  0.1273846E-001  0.3000000E+03  0.7818608E-02  0.1093470E+00
         21   -1    0    0  501  502  0.00000000000E+00  0.00000000000E+00  0.28783292127E+01  0.28783292127E+01  0.00000000000E+00 0. -1.
         13   -1    0    0    0    0 -0.00000000000E+00 -0.00000000000E+00 -0.10000000000E+04  0.10000000000E+04  0.00000000000E+00 0.  1.
    9000005    2    1    2  501    0  0.18510582434E+01  0.41487408453E+02 -0.81586462943E+03  0.81692471533E+03  0.25030930891E+01 0.  0.
         13    1    3    3    0    0  0.49552600871E+00  0.13734589203E+02 -0.29351032347E+03  0.29383191534E+03  0.00000000000E+00 0.  1.
          3    1    3    3  501    0  0.13555322346E+01  0.27752819249E+02 -0.52235430596E+03  0.52309279999E+03  0.00000000000E+00 0.  1.
         -1    1    1    2    0  502 -0.18510582434E+01 -0.41487408453E+02 -0.18125704135E+03  0.18595361389E+03  0.00000000000E+00 0. -1.
<mgrwt>
<rscale>  1 0.30000000E+03</rscale>
<asrwt>0</asrwt>
<pdfrwt beam="1">  1       21 0.10466674E-01 0.30000000E+03</pdfrwt>
<pdfrwt beam="2">0</pdfrwt>
<totfact> 0.79289182E+03</totfact>
</mgrwt>
</event>
<event>
 6    1  0.1273846E-001  0.3000000E+03  0.7818608E-02  0.1093470E+00
         21   -1    0    0  501  502  0.00000000000E+00  0.00000000000E+00  0.18917972796E+01  0.18917972796E+01  0.00000000000E+00 0. -1.
         13   -1    0    0    0    0 -0.00000000000E+00 -0.00000000000E+00 -0.10000000000E+04  0.10000000000E+04  0.00000000000E+00 0.  1.
    9000005    2    1    2  501    0  0.92576192388E+01 -0.34411355186E+02 -0.21608221218E+03  0.21905433346E+03  0.48408374311E+01 0.  0.
         13    1    3    3    0    0  0.16219835339E+01 -0.67725963577E+01 -0.55099438586E+02  0.55537798161E+02  0.00000000000E+00 0.  1.
          1    1    3    3  501    0  0.76356357050E+01 -0.27638758828E+02 -0.16098277359E+03  0.16351653530E+03  0.00000000000E+00 0.  1.
         -1    1    1    2    0  502 -0.92576192388E+01  0.34411355186E+02 -0.78202599054E+03  0.78283746382E+03  0.00000000000E+00 0. -1.
<mgrwt>
<rscale>  1 0.30000000E+03</rscale>
<asrwt>0</asrwt>
<pdfrwt beam="1">  1       21 0.68792773E-02 0.30000000E+03</pdfrwt>
<pdfrwt beam="2">0</pdfrwt>
<totfact> 0.16630919E+04</totfact>
</mgrwt>
</event>
<event>
 6    1  0.1273846E-001  0.3000000E+03  0.7818608E-02  0.1093470E+00
         21   -1    0    0  501  502  0.00000000000E+00  0.00000000000E+00  0.11172033202E+01  0.11172033202E+01  0.00000000000E+00 0. -1.
         13   -1    0    0    0    0 -0.00000000000E+00 -0.00000000000E+00 -0.10000000000E+04  0.10000000000E+04  0.00000000000E+00 0.  1.
    9000005    2    1    2  501    0 -0.32194902362E+02 -0.75213250271E+01 -0.56518140071E+03  0.56615745469E+03  0.33415140783E+01 0.  0.
         13    1    3    3    0    0 -0.29118129724E+02 -0.76646757956E+01 -0.50408899384E+03  0.50498745177E+03  0.00000000000E+00 0.  1.
          3    1    3    3  501    0 -0.30767726384E+01  0.14335076854E+00 -0.61092406876E+02  0.61170002920E+02  0.00000000000E+00 0.  1.
         -1    1    1    2    0  502  0.32194902362E+02  0.75213250271E+01 -0.43370139597E+03  0.43495974863E+03  0.00000000000E+00 0. -1.
<mgrwt>
<rscale>  1 0.30000000E+03</rscale>
<asrwt>0</asrwt>
<pdfrwt beam="1">  1       21 0.40625661E-02 0.30000000E+03</pdfrwt>
<pdfrwt beam="2">0</pdfrwt>
<totfact> 0.40962144E+04</totfact>
</mgrwt>
</event>
<event>
 6    1  0.1273846E-001  0.3000000E+03  0.7818608E-02  0.1093470E+00
         21   -1    0    0  501  502  0.00000000000E+00  0.00000000000E+00  0.22626804932E+01  0.22626804932E+01  0.00000000000E+00 0. -1.
         13   -1    0    0    0    0 -0.00000000000E+00 -0.00000000000E+00 -0.10000000000E+04  0.10000000000E+04  0.00000000000E+00 0.  1.
    9000005    2    1    2  501    0 -0.70195620975E+01  0.30488589749E+02 -0.87616783344E+03  0.87673193406E+03  0.31596665491E+01 0.  0.
         13    1    3    3    0    0 -0.67518868179E+00  0.41418020500E+01 -0.91308414213E+02  0.91404796975E+02  0.00000000000E+00 0.  1.
          1    1    3    3  501    0 -0.63443734157E+01  0.26346787699E+02 -0.78485941923E+03  0.78532713709E+03  0.00000000000E+00 0.  1.
         -1    1    1    2    0  502  0.70195620975E+01 -0.30488589749E+02 -0.12156948607E+03  0.12553074643E+03  0.00000000000E+00 0. -1.
<mgrwt>
<rscale>  1 0.30000000E+03</rscale>
<asrwt>0</asrwt>
<pdfrwt beam="1">  1       21 0.82279464E-02 0.30000000E+03</pdfrwt>
<pdfrwt beam="2">0</pdfrwt>
<totfact> 0.12158310E+04</totfact>
</mgrwt>
</event>
<event>
 6    1  0.1273846E-001  0.3000000E+03  0.7818608E-02  0.1093470E+00
         21   -1    0    0  501  502  0.00000000000E+00  0.00000000000E+00  0.92978281144E+00  0.92978281144E+00  0.00000000000E+00 0. -1.
         13   -1    0    0    0    0 -0.00000000000E+00 -0.00000000000E+00 -0.10000000000E+04  0.10000000000E+04  0.00000000000E+00 0.  1.
    9000005    2    1    2  501    0 -0.29498660463E+02 -0.58590172570E+01 -0.57622331377E+03  0.57701469369E+03  0.28548821791E+01 0.  0.
         13    1    3    3    0    0 -0.23253802895E+02 -0.37685868501E+01 -0.46554790997E+03  0.46614353806E+03  0.00000000000E+00 0.  1.
          3    1    3    3  501    0 -0.62448575684E+01 -0.20904304070E+01 -0.11067540380E+03  0.11087115563E+03  0.00000000000E+00 0.  1.
         -3    1    1    2    0  502  0.29498660463E+02  0.58590172570E+01 -0.42284690342E+03  0.42391508912E+03  0.00000000000E+00 0. -1.
<mgrwt>
<rscale>  1 0.30000000E+03</rscale>
<asrwt>0</asrwt>
<pdfrwt beam="1">  1       21 0.33810355E-02 0.30000000E+03</pdfrwt>
<pdfrwt beam="2">0</pdfrwt>
<totfact> 0.55749600E+04</totfact>
</mgrwt>
</event>
<event>
 6    1  0.1273846E-001  0.3000000E+03  0.7818608E-02  0.1093470E+00
         21   -1    0    0  501  502  0.00000000000E+00  0.00000000000E+00  0.20108317994E+01  0.20108317994E+01  0.00000000000E+00 0. -1.
         13   -1    0    0    0    0 -0.00000000000E+00 -0.00000000000E+00 -0.10000000000E+04  0.10000000000E+04  0.00000000000E+00 0.  1.
    9000005    2    1    2  501    0  0.40679936829E+02  0.17945224372E+02 -0.51969439334E+03  0.52165390201E+03  0.79776359044E+01 0.  0.
         13    1    3    3    0    0  0.40280733139E+02  0.17887200244E+02 -0.51884512711E+03  0.52071369803E+03  0.00000000000E+00 0.  1.
          1    1    3    3  501    0  0.39920369016E+00  0.58024128183E-01 -0.84926622979E+00  0.94020397507E+00  0.00000000000E+00 0.  1.
         -3    1    1    2    0  502 -0.40679936829E+02 -0.17945224372E+02 -0.47829477486E+03  0.48035692979E+03  0.00000000000E+00 0. -1.
<mgrwt>
<rscale>  1 0.30000000E+03</rscale>
<asrwt>0</asrwt>
<pdfrwt beam="1">  1       21 0.73121311E-02 0.30000000E+03</pdfrwt>
<pdfrwt beam="2">0</pdfrwt>
<totfact> 0.14953495E+04</totfact>
</mgrwt>
</event>
<event>
 6    1  0.1273846E-001  0.3000000E+03  0.7818608E-02  0.1093470E+00
         21   -1    0    0  501  502  0.00000000000E+00  0.00000000000E+00  0.50440861240E+01  0.50440861240E+01  0.00000000000E+00 0. -1.
         13   -1    0    0    0    0 -0.00000000000E+00 -0.00000000000E+00 -0.10000000000E+04  0.10000000000E+04  0.00000000000E+00 0.  1.
    9000005    2    1    2  501    0 -0.30121041186E+02 -0.29736352383E+02 -0.90093262465E+03  0.90193294855E+03  0.34527877844E+01 0.  0.
         13    1    3    3    0    0 -0.15376910321E+02 -0.17288184032E+02 -0.47332786460E+03  0.47389302388E+03  0.00000000000E+00 0.  1.
          1    1    3    3  501    0 -0.14744130866E+02 -0.12448168351E+02 -0.42760476006E+03  0.42803992467E+03  0.00000000000E+00 0.  1.
         -3    1    1    2    0  502  0.30121041186E+02  0.29736352383E+02 -0.94023289224E+02  0.10311113757E+03  0.00000000000E+00 0. -1.
<mgrwt>
<rscale>  1 0.30000000E+03</rscale>
<asrwt>0</asrwt>
<pdfrwt beam="1">  1       21 0.18342170E-01 0.30000000E+03</pdfrwt>
<pdfrwt beam="2">0</pdfrwt>
<totfact> 0.28273685E+03</totfact>
</mgrwt>
</event>
<event>
 6    1  0.1273846E-001  0.3000000E+03  0.7818608E-02  0.1093470E+00
         21   -1    0    0  501  502  0.00000000000E+00  0.00000000000E+00  0.99674205942E+00  0.99674205942E+00  0.00000000000E+00 0. -1.
         13   -1    0    0    0    0 -0.00000000000E+00 -0.00000000000E+00 -0.10000000000E+04  0.10000000000E+04  0.00000000000E+00 0.  1.
    9000005    2    1    2  501    0  0.28379231959E+02  0.11040620584E+02 -0.37439044049E+03  0.37564208442E+03  0.33908032426E+01 0.  0.
         13    1    3    3    0    0  0.10150192936E+01  0.68439883992E+00 -0.24453103638E+02  0.24483728137E+02  0.00000000000E+00 0.  1.
          3    1    3    3  501    0  0.27364212665E+02  0.10356221744E+02 -0.34993733686E+03  0.35115835629E+03  0.00000000000E+00 0.  1.
         -3    1    1    2    0  502 -0.28379231959E+02 -0.11040620584E+02 -0.62461281745E+03  0.62535465764E+03  0.00000000000E+00 0. -1.
<mgrwt>
<rscale>  1 0.30000000E+03</rscale>
<asrwt>0</asrwt>
<pdfrwt beam="1">  1       21 0.36245242E-02 0.30000000E+03</pdfrwt>
<pdfrwt beam="2">0</pdfrwt>
<totfact> 0.49622069E+04</totfact>
</mgrwt>
</event>
<event>
 6    1  0.1273846E-001  0.3000000E+03  0.7818608E-02  0.1093470E+00
         21   -1    0    0  501  502  0.00000000000E+00  0.00000000000E+00  0.17890134106E+01  0.17890134106E+01  0.00000000000E+00 0. -1.
         13   -1    0    0    0    0 -0.00000000000E+00 -0.00000000000E+00 -0.10000000000E+04  0.10000000000E+04  0.00000000000E+00 0.  1.
    9000005    2    1    2  501    0  0.35740103854E+02  0.44481189107E+01 -0.76021399836E+03  0.76108233051E+03  0.48836186604E+01 0.  0.
         13    1    3    3    0    0  0.19523368806E+01 -0.46856483839E+00 -0.64163261354E+02  0.64194667067E+02  0.00000000000E+00 0.  1.
          1    1    3    3  501    0  0.33787766973E+02  0.49166837490E+01 -0.69605073701E+03  0.69688766344E+03  0.00000000000E+00 0.  1.
         -1    1    1    2    0  502 -0.35740103854E+02 -0.44481189107E+01 -0.23799698823E+03  0.24070668290E+03  0.00000000000E+00 0. -1.
<mgrwt>
<rscale>  1 0.30000000E+03</rscale>
<asrwt>0</asrwt>
<pdfrwt beam="1">  1       21 0.65055170E-02 0.30000000E+03</pdfrwt>
<pdfrwt beam="2">0</pdfrwt>
<totfact> 0.18323109E+04</totfact>
</mgrwt>
</event>
<event>
 6    1  0.1273846E-001  0.3000000E+03  0.7818608E-02  0.1093470E+00
         21   -1    0    0  501  502  0.00000000000E+00  0.00000000000E+00  0.12084202188E+01  0.12084202188E+01  0.00000000000E+00 0. -1.
         13   -1    0    0    0    0 -0.00000000000E+00 -0.00000000000E+00 -0.10000000000E+04  0.10000000000E+04  0.00000000000E+00 0.  1.
    9000005    2    1    2  501    0  0.14424791198E+02  0.31251979957E+02 -0.43924875729E+03  0.44060791090E+03  0.33315927682E+01 0.  0.
         13    1    3    3    0    0  0.17600441759E+01  0.22543765252E+01 -0.29018259180E+02  0.29158863744E+02  0.00000000000E+00 0.  1.
          3    1    3    3  501    0  0.12664747022E+02  0.28997603432E+02 -0.41023049811E+03  0.41144904715E+03  0.00000000000E+00 0.  1.
         -1    1    1    2    0  502 -0.14424791198E+02 -0.31251979957E+02 -0.55954282249E+03  0.56060050932E+03  0.00000000000E+00 0. -1.
<mgrwt>
<rscale>  1 0.30000000E+03</rscale>
<asrwt>0</asrwt>
<pdfrwt beam="1">  1       21 0.43942646E-02 0.30000000E+03</pdfrwt>
<pdfrwt beam="2">0</pdfrwt>
<totfact> 0.35875581E+04</totfact>
</mgrwt>
</event>
<event>
 6    1  0.1273846E-001  0.3000000E+03  0.7818608E-02  0.1093470E+00
         21   -1    0    0  501  502  0.00000000000E+00  0.00000000000E+00  0.13516832313E+01  0.13516832313E+01  0.00000000000E+00 0. -1.
         13   -1    0    0    0    0 -0.00000000000E+00 -0.00000000000E+00 -0.10000000000E+04  0.10000000000E+04  0.00000000000E+00 0.  1.
    9000005    2    1    2  501    0  0.25220278265E+02 -0.19835341265E+02 -0.74250505838E+03  0.74320662320E+03  0.35804824273E+01 0.  0.
         13    1    3    3    0    0  0.19918563899E+02 -0.14943509529E+02 -0.60545909025E+03  0.60597092969E+03  0.00000000000E+00 0.  1.
          1    1    3    3  501    0  0.53017143663E+01 -0.48918317366E+01 -0.13704596812E+03  0.13723569351E+03  0.00000000000E+00 0.  1.
         -1    1    1    2    0  502 -0.25220278265E+02  0.19835341265E+02 -0.25614325839E+03  0.25814506003E+03  0.00000000000E+00 0. -1.
<mgrwt>
<rscale>  1 0.30000000E+03</rscale>
<asrwt>0</asrwt>
<pdfrwt beam="1">  1       21 0.49152221E-02 0.30000000E+03</pdfrwt>
<pdfrwt beam="2">0</pdfrwt>
<totfact> 0.29656386E+04</totfact>
</mgrwt>
</event>
<event>
 6    1  0.1273846E-001  0.3000000E+03  0.7818608E-02  0.1093470E+00
         21   -1    0    0  501  502  0.00000000000E+00  0.00000000000E+00  0.24717776877E+01  0.24717776877E+01  0.00000000000E+00 0. -1.
         13   -1    0    0    0    0 -0.00000000000E+00 -0.00000000000E+00 -0.10000000000E+04  0.10000000000E+04  0.00000000000E+00 0.  1.
    9000005    2    1    2  501    0 -0.37919796033E+02  0.64186993238E+01 -0.81616328447E+03  0.81707395864E+03  0.28698998014E+01 0.  0.
         13    1    3    3    0    0 -0.41259767590E-01 -0.10689490899E+00 -0.40229708866E+01  0.40246022964E+01  0.00000000000E+00 0.  1.
          1    1    3    3  501    0 -0.37878536265E+02  0.65255942328E+01 -0.81214031359E+03  0.81304935634E+03  0.00000000000E+00 0.  1.
         -1    1    1    2    0  502  0.37919796033E+02 -0.64186993238E+01 -0.18136493784E+03  0.18539781905E+03  0.00000000000E+00 0. -1.
<mgrwt>
<rscale>  1 0.30000000E+03</rscale>
<asrwt>0</asrwt>
<pdfrwt beam="1">  1       21 0.89883015E-02 0.30000000E+03</pdfrwt>
<pdfrwt beam="2">0</pdfrwt>
<totfact> 0.10402031E+04</totfact>
</mgrwt>
</event>
<event>
 6    1  0.1273846E-001  0.3000000E+03  0.7818608E-02  0.1093470E+00
         21   -1    0    0  501  502  0.00000000000E+00  0.00000000000E+00  0.41576341156E+01  0.41576341156E+01  0.00000000000E+00 0. -1.
         13   -1    0    0    0    0 -0.00000000000E+00 -0.00000000000E+00 -0.10000000000E+04  0.10000000000E+04  0.00000000000E+00 0.  1.
    9000005    2    1    2  501    0  0.30475856348E+01 -0.32634302111E+02 -0.93019481434E+03  0.93078266239E+03  0.44369495998E+01 0.  0.
         13    1    3    3    0    0  0.27920720688E-01 -0.12966165490E+02 -0.41948866859E+03  0.41968901022E+03  0.00000000000E+00 0.  1.
          3    1    3    3  501    0  0.30196649141E+01 -0.19668136620E+02 -0.51070614575E+03  0.51109365217E+03  0.00000000000E+00 0.  1.
         -1    1    1    2    0  502 -0.30475856348E+01  0.32634302111E+02 -0.65647551543E+02  0.73374971727E+02  0.00000000000E+00 0. -1.
<mgrwt>
<rscale>  1 0.30000000E+03</rscale>
<asrwt>0</asrwt>
<pdfrwt beam="1">  1       21 0.15118701E-01 0.30000000E+03</pdfrwt>
<pdfrwt beam="2">0</pdfrwt>
<totfact> 0.40583650E+03</totfact>
</mgrwt>
</event>
<event>
 6    1  0.1273846E-001  0.3000000E+03  0.7818608E-02  0.1093470E+00
         21   -1    0    0  501  502  0.00000000000E+00  0.00000000000E+00  0.26107163217E+01  0.26107163217E+01  0.00000000000E+00 0. -1.
         13   -1    0    0    0    0 -0.00000000000E+00 -0.00000000000E+00 -0.10000000000E+04  0.10000000000E+04  0.00000000000E+00 0.  1.
    9000005    2    1    2  501    0  0.53607479156E+01  0.31559224160E+02 -0.88928129556E+03  0.88986294764E+03  0.31813049976E+01 0.  0.
         13    1    3    3    0    0  0.41616011065E+01  0.29450139942E+02 -0.82161444910E+03  0.82215262125E+03  0.00000000000E+00 0.  1.
          1    1    3    3  501    0  0.11991468092E+01  0.21090842182E+01 -0.67666846459E+02  0.67710326383E+02  0.00000000000E+00 0.  1.
         -1    1    1    2    0  502 -0.53607479156E+01 -0.31559224160E+02 -0.10810798812E+03  0.11274776869E+03  0.00000000000E+00 0. -1.
<mgrwt>
<rscale>  1 0.30000000E+03</rscale>
<asrwt>0</asrwt>
<pdfrwt beam="1">  1       21 0.94935339E-02 0.30000000E+03</pdfrwt>
<pdfrwt beam="2">0</pdfrwt>
<totfact> 0.94391651E+03</totfact>
</mgrwt>
</event>
<event>
 6    1  0.1273846E-001  0.3000000E+03  0.7818608E-02  0.1093470E+00
         21   -1    0    0  501  502  0.00000000000E+00  0.00000000000E+00  0.12237366444E+01  0.12237366444E+01  0.00000000000E+00 0. -1.
         13   -1    0    0    0    0 -0.00000000000E+00 -0.00000000000E+00 -0.10000000000E+04  0.10000000000E+04  0.00000000000E+00 0.  1.
    9000005    2    1    2  501    0 -0.10938562503E+02  0.31926978520E+02 -0.62784149610E+03  0.62875684461E+03  0.33528054815E+01 0.  0.
         13    1    3    3    0    0 -0.98472712127E+01  0.30202869041E+02 -0.60021672280E+03  0.60105681626E+03  0.00000000000E+00 0.  1.
          1    1    3    3  501    0 -0.10912912904E+01  0.17241094796E+01 -0.27624773306E+02  0.27700028347E+02  0.00000000000E+00 0.  1.
         -1    1    1    2    0  502  0.10938562503E+02 -0.31926978520E+02 -0.37093476725E+03  0.37246689204E+03  0.00000000000E+00 0. -1.
<mgrwt>
<rscale>  1 0.30000000E+03</rscale>
<asrwt>0</asrwt>
<pdfrwt beam="1">  1       21 0.44499608E-02 0.30000000E+03</pdfrwt>
<pdfrwt beam="2">0</pdfrwt>
<totfact> 0.35117979E+04</totfact>
</mgrwt>
</event>
<event>
 6    1  0.1273846E-001  0.3000000E+03  0.7818608E-02  0.1093470E+00
         21   -1    0    0  501  502  0.00000000000E+00  0.00000000000E+00  0.34775573618E+01  0.34775573618E+01  0.00000000000E+00 0. -1.
         13   -1    0    0    0    0 -0.00000000000E+00 -0.00000000000E+00 -0.10000000000E+04  0.10000000000E+04  0.00000000000E+00 0.  1.
    9000005    2    1    2  501    0  0.35447146484E+02 -0.28723090210E+02 -0.81546966480E+03  0.81676487845E+03  0.57075693881E+01 0.  0.
         13    1    3    3    0    0  0.78846786498E+01 -0.67915443914E+01 -0.14702617202E+03  0.14739399069E+03  0.00000000000E+00 0.  1.
          3    1    3    3  501    0  0.27562467834E+02 -0.21931545819E+02 -0.66844349278E+03  0.66937088775E+03  0.00000000000E+00 0.  1.
         -1    1    1    2    0  502 -0.35447146484E+02  0.28723090210E+02 -0.18105277784E+03  0.18671267891E+03  0.00000000000E+00 0. -1.
<mgrwt>
<rscale>  1 0.30000000E+03</rscale>
<asrwt>0</asrwt>
<pdfrwt beam="1">  1       21 0.12645690E-01 0.30000000E+03</pdfrwt>
<pdfrwt beam="2">0</pdfrwt>
<totfact> 0.56334876E+03</totfact>
</mgrwt>
</event>
<event>
 6    1  0.1273846E-001  0.3000000E+03  0.7818608E-02  0.1093470E+00
         21   -1    0    0  501  502  0.00000000000E+00  0.00000000000E+00  0.12918382084E+01  0.12918382084E+01  0.00000000000E+00 0. -1.
         13   -1    0    0    0    0 -0.00000000000E+00 -0.00000000000E+00 -0.10000000000E+04  0.10000000000E+04  0.00000000000E+00 0.  1.
    9000005    2    1    2  501    0  0.18301052571E+02  0.30738330503E+02 -0.53679800076E+03  0.53799844266E+03  0.32337602894E+01 0.  0.
         13    1    3    3    0    0  0.17326582513E+01  0.28956600891E+01 -0.38133266876E+02  0.38282280425E+02  0.00000000000E+00 0.  1.
          3    1    3    3  501    0  0.16568394320E+02  0.27842670414E+02 -0.49866473388E+03  0.49971616224E+03  0.00000000000E+00 0.  1.
         -1    1    1    2    0  502 -0.18301052571E+02 -0.30738330503E+02 -0.46191016103E+03  0.46329339554E+03  0.00000000000E+00 0. -1.
<mgrwt>
<rscale>  1 0.30000000E+03</rscale>
<asrwt>0</asrwt>
<pdfrwt beam="1">  1       21 0.46976034E-02 0.30000000E+03</pdfrwt>
<pdfrwt beam="2">0</pdfrwt>
<totfact> 0.32032099E+04</totfact>
</mgrwt>
</event>
<event>
 6    1  0.1273846E-001  0.3000000E+03  0.7818608E-02  0.1093470E+00
         21   -1    0    0  501  502  0.00000000000E+00  0.00000000000E+00  0.15994684603E+02  0.15994684603E+02  0.00000000000E+00 0. -1.
         13   -1    0    0    0    0 -0.00000000000E+00 -0.00000000000E+00 -0.10000000000E+04  0.10000000000E+04  0.00000000000E+00 0.  1.
    9000005    2    1    2  501    0  0.45227279034E+02 -0.21721863141E+02 -0.95829908051E+03  0.95961954275E+03  0.38978212935E+01 0.  0.
         13    1    3    3    0    0  0.28287891162E+02 -0.15457773795E+02 -0.59867789125E+03  0.59954513177E+03  0.00000000000E+00 0.  1.
          1    1    3    3  501    0  0.16939387872E+02 -0.62640893465E+01 -0.35962118926E+03  0.36007441098E+03  0.00000000000E+00 0.  1.
         -1    1    1    2    0  502 -0.45227279034E+02  0.21721863141E+02 -0.25706234889E+02  0.56375141856E+02  0.00000000000E+00 0. -1.
<mgrwt>
<rscale>  1 0.30000000E+03</rscale>
<asrwt>0</asrwt>
<pdfrwt beam="1">  1       21 0.58162612E-01 0.30000000E+03</pdfrwt>
<pdfrwt beam="2">0</pdfrwt>
<totfact> 0.26924083E+02</totfact>
</mgrwt>
</event>
<event>
 6    1  0.1273846E-001  0.3000000E+03  0.7818608E-02  0.1093470E+00
         21   -1    0    0  501  502  0.00000000000E+00  0.00000000000E+00  0.21830143488E+01  0.21830143488E+01  0.00000000000E+00 0. -1.
         13   -1    0    0    0    0 -0.00000000000E+00 -0.00000000000E+00 -0.10000000000E+04  0.10000000000E+04  0.00000000000E+00 0.  1.
    9000005    2    1    2  501    0 -0.37957328784E+01  0.36670612784E+02 -0.80638989897E+03  0.80723822487E+03  0.31210733475E+01 0.  0.
         13    1    3    3    0    0 -0.16293513887E+01  0.17737304443E+02 -0.35594434666E+03  0.35638973705E+03  0.00000000000E+00 0.  1.
          1    1    3    3  501    0 -0.21663814897E+01  0.18933308342E+02 -0.45044555231E+03  0.45084848782E+03  0.00000000000E+00 0.  1.
         -1    1    1    2    0  502  0.37957328784E+01 -0.36670612784E+02 -0.19142708668E+03  0.19494478948E+03  0.00000000000E+00 0. -1.
<mgrwt>
<rscale>  1 0.30000000E+03</rscale>
<asrwt>0</asrwt>
<pdfrwt beam="1">  1       21 0.79382507E-02 0.30000000E+03</pdfrwt>
<pdfrwt beam="2">0</pdfrwt>
<totfact> 0.12948872E+04</totfact>
</mgrwt>
</event>
<event>
 6    1  0.1273846E-001  0.3000000E+03  0.7818608E-02  0.1093470E+00
         21   -1    0    0  501  502  0.00000000000E+00  0.00000000000E+00  0.11431582282E+01  0.11431582282E+01  0.00000000000E+00 0. -1.
         13   -1    0    0    0    0 -0.00000000000E+00 -0.00000000000E+00 -0.10000000000E+04  0.10000000000E+04  0.00000000000E+00 0.  1.
    9000005    2    1    2  501    0  0.14319780678E+02 -0.29776771697E+02 -0.59929848694E+03  0.60022098228E+03  0.38521252519E+01 0.  0.
         13    1    3    3    0    0 -0.78407080180E-03 -0.21096658680E+01 -0.36604555592E+02  0.36665299409E+02  0.00000000000E+00 0.  1.
          3    1    3    3  501    0  0.14320564749E+02 -0.27667105829E+02 -0.56269393135E+03  0.56355568287E+03  0.00000000000E+00 0.  1.
         -1    1    1    2    0  502 -0.14319780678E+02  0.29776771697E+02 -0.39955835483E+03  0.40092217595E+03  0.00000000000E+00 0. -1.
<mgrwt>
<rscale>  1 0.30000000E+03</rscale>
<asrwt>0</asrwt>
<pdfrwt beam="1">  1       21 0.41569478E-02 0.30000000E+03</pdfrwt>
<pdfrwt beam="2">0</pdfrwt>
<totfact> 0.39405931E+04</totfact>
</mgrwt>
</event>
<event>
 6    1  0.1273846E-001  0.3000000E+03  0.7818608E-02  0.1093470E+00
         21   -1    0    0  501  502  0.00000000000E+00  0.00000000000E+00  0.76920537673E+01  0.76920537673E+01  0.00000000000E+00 0. -1.
         13   -1    0    0    0    0 -0.00000000000E+00 -0.00000000000E+00 -0.10000000000E+04  0.10000000000E+04  0.00000000000E+00 0.  1.
    9000005    2    1    2  501    0 -0.23118615431E+02 -0.43037339558E+02 -0.91454687740E+03  0.91585814498E+03  0.36698506705E+01 0.  0.
         13    1    3    3    0    0 -0.21818167215E+01 -0.24962723830E+01 -0.72916770811E+02  0.72992103446E+02  0.00000000000E+00 0.  1.
          3    1    3    3  501    0 -0.20936798709E+02 -0.40541067175E+02 -0.84163010659E+03  0.84286604154E+03  0.00000000000E+00 0.  1.
         -1    1    1    2    0  502  0.23118615431E+02  0.43037339558E+02 -0.77761068837E+02  0.91833908783E+02  0.00000000000E+00 0. -1.
<mgrwt>
<rscale>  1 0.30000000E+03</rscale>
<asrwt>0</asrwt>
<pdfrwt beam="1">  1       21 0.27971164E-01 0.30000000E+03</pdfrwt>
<pdfrwt beam="2">0</pdfrwt>
<totfact> 0.12499504E+03</totfact>
</mgrwt>
</event>
<event>
 6    1  0.1273846E-001  0.3000000E+03  0.7818608E-02  0.1093470E+00
         21   -1    0    0  501  502  0.00000000000E+00  0.00000000000E+00  0.14269329530E+01  0.14269329530E+01  0.00000000000E+00 0. -1.
         13   -1    0    0    0    0 -0.00000000000E+00 -0.00000000000E+00 -0.10000000000E+04  0.10000000000E+04  0.00000000000E+00 0.  1.
    9000005    2    1    2  501    0 -0.32943075451E+02 -0.19011821792E+01 -0.74191404130E+03  0.74265538078E+03  0.34218733925E+01 0.  0.
         13    1    3    3    0    0 -0.79794754494E+00 -0.31453693115E+00 -0.32997563539E+02  0.33008708749E+02  0.00000000000E+00 0.  1.
          1    1    3    3  501    0 -0.32145127906E+02 -0.15866452481E+01 -0.70891647776E+03  0.70964667203E+03  0.00000000000E+00 0.  1.
         -1    1    1    2    0  502  0.32943075451E+02  0.19011821792E+01 -0.25665902575E+03  0.25877155217E+03  0.00000000000E+00 0. -1.
<mgrwt>
<rscale>  1 0.30000000E+03</rscale>
<asrwt>0</asrwt>
<pdfrwt beam="1">  1       21 0.51888580E-02 0.30000000E+03</pdfrwt>
<pdfrwt beam="2">0</pdfrwt>
<totfact> 0.27038775E+04</totfact>
</mgrwt>
</event>
<event>
 6    1  0.1273846E-001  0.3000000E+03  0.7818608E-02  0.1093470E+00
         21   -1    0    0  501  502  0.00000000000E+00  0.00000000000E+00  0.21722502776E+01  0.21722502776E+01  0.00000000000E+00 0. -1.
         13   -1    0    0    0    0 -0.00000000000E+00 -0.00000000000E+00 -0.10000000000E+04  0.10000000000E+04  0.00000000000E+00 0.  1.
    9000005    2    1    2  501    0 -0.40412337626E+02  0.21626465295E+02 -0.58659359966E+03  0.58839164753E+03  0.34378316003E+01 0.  0.
         13    1    3    3    0    0 -0.31547983076E+02  0.18336886956E+02 -0.45891650232E+03  0.46036493433E+03  0.00000000000E+00 0.  1.
          1    1    3    3  501    0 -0.88643545497E+01  0.32895783382E+01 -0.12767709734E+03  0.12802671320E+03  0.00000000000E+00 0.  1.
         -1    1    1    2    0  502  0.40412337626E+02 -0.21626465295E+02 -0.41123415006E+03  0.41378060275E+03  0.00000000000E+00 0. -1.
<mgrwt>
<rscale>  1 0.30000000E+03</rscale>
<asrwt>0</asrwt>
<pdfrwt beam="1">  1       21 0.78991086E-02 0.30000000E+03</pdfrwt>
<pdfrwt beam="2">0</pdfrwt>
<totfact> 0.13061723E+04</totfact>
</mgrwt>
</event>
<event>
 6    1  0.1273846E-001  0.3000000E+03  0.7818608E-02  0.1093470E+00
         21   -1    0    0  501  502  0.00000000000E+00  0.00000000000E+00  0.18429407250E+01  0.18429407250E+01  0.00000000000E+00 0. -1.
         13   -1    0    0    0    0 -0.00000000000E+00 -0.00000000000E+00 -0.10000000000E+04  0.10000000000E+04  0.00000000000E+00 0.  1.
    9000005    2    1    2  501    0 -0.17696350585E+02  0.38910856013E+02 -0.54224199041E+03  0.54392835747E+03  0.21133755484E+01 0.  0.
         13    1    3    3    0    0 -0.29768828330E+01  0.64067480558E+01 -0.80096270716E+02  0.80407218797E+02  0.00000000000E+00 0.  1.
          1    1    3    3  501    0 -0.14719467752E+02  0.32504107957E+02 -0.46214571970E+03  0.46352113868E+03  0.00000000000E+00 0.  1.
         -3    1    1    2    0  502  0.17696350585E+02 -0.38910856013E+02 -0.45591506886E+03  0.45791458325E+03  0.00000000000E+00 0. -1.
<mgrwt>
<rscale>  1 0.30000000E+03</rscale>
<asrwt>0</asrwt>
<pdfrwt beam="1">  1       21 0.67016168E-02 0.30000000E+03</pdfrwt>
<pdfrwt beam="2">0</pdfrwt>
<totfact> 0.17403895E+04</totfact>
</mgrwt>
</event>
<event>
 6    1  0.1273846E-001  0.3000000E+03  0.7818608E-02  0.1093470E+00
         21   -1    0    0  501  502  0.00000000000E+00  0.00000000000E+00  0.80013109026E+01  0.80013109026E+01  0.00000000000E+00 0. -1.
         13   -1    0    0    0    0 -0.00000000000E+00 -0.00000000000E+00 -0.10000000000E+04  0.10000000000E+04  0.00000000000E+00 0.  1.
    9000005    2    1    2  501    0 -0.25927435243E+02 -0.58025561279E+02 -0.85055344927E+03  0.85293373360E+03  0.39479350651E+01 0.  0.
         13    1    3    3    0    0 -0.11455538680E+02 -0.21007871692E+02 -0.31566400355E+03  0.31656961822E+03  0.00000000000E+00 0.  1.
          3    1    3    3  501    0 -0.14471896563E+02 -0.37017689587E+02 -0.53488944572E+03  0.53636411538E+03  0.00000000000E+00 0.  1.
         -1    1    1    2    0  502  0.25927435243E+02  0.58025561279E+02 -0.14144523983E+03  0.15506757730E+03  0.00000000000E+00 0. -1.
<mgrwt>
<rscale>  1 0.30000000E+03</rscale>
<asrwt>0</asrwt>
<pdfrwt beam="1">  1       21 0.29095737E-01 0.30000000E+03</pdfrwt>
<pdfrwt beam="2">0</pdfrwt>
<totfact> 0.11557777E+03</totfact>
</mgrwt>
</event>
<event>
 6    1  0.1273846E-001  0.3000000E+03  0.7818608E-02  0.1093470E+00
         21   -1    0    0  501  502  0.00000000000E+00  0.00000000000E+00  0.31380871800E+01  0.31380871800E+01  0.00000000000E+00 0. -1.
         13   -1    0    0    0    0 -0.00000000000E+00 -0.00000000000E+00 -0.10000000000E+04  0.10000000000E+04  0.00000000000E+00 0.  1.
    9000005    2    1    2  501    0 -0.16279804891E+02  0.28453142198E+02 -0.90507306310E+03  0.90567113750E+03  0.28890120953E+01 0.  0.
         13    1    3    3    0    0 -0.16075378742E+02  0.26866523431E+02 -0.86081945799E+03  0.86138862724E+03  0.00000000000E+00 0.  1.
          3    1    3    3  501    0 -0.20442614911E+00  0.15866187674E+01 -0.44253605116E+02  0.44282510260E+02  0.00000000000E+00 0.  1.
         -3    1    1    2    0  502  0.16279804891E+02 -0.28453142198E+02 -0.91788849715E+02  0.97466949682E+02  0.00000000000E+00 0. -1.
<mgrwt>
<rscale>  1 0.30000000E+03</rscale>
<asrwt>0</asrwt>
<pdfrwt beam="1">  1       21 0.11411250E-01 0.30000000E+03</pdfrwt>
<pdfrwt beam="2">0</pdfrwt>
<totfact> 0.67878593E+03</totfact>
</mgrwt>
</event>
<event>
 6    1  0.1273846E-001  0.3000000E+03  0.7818608E-02  0.1093470E+00
         21   -1    0    0  501  502  0.00000000000E+00  0.00000000000E+00  0.24157064376E+01  0.24157064376E+01  0.00000000000E+00 0. -1.
         13   -1    0    0    0    0 -0.00000000000E+00 -0.00000000000E+00 -0.10000000000E+04  0.10000000000E+04  0.00000000000E+00 0.  1.
    9000005    2    1    2  501    0  0.38572682940E+02 -0.29030203718E+02 -0.59028313536E+03  0.59226349315E+03  0.33557149493E+01 0.  0.
         13    1    3    3    0    0  0.46093411306E+01 -0.44086367619E+01 -0.88930414627E+02  0.89158851212E+02  0.00000000000E+00 0.  1.
          3    1    3    3  501    0  0.33963341810E+02 -0.24621566956E+02 -0.50135272074E+03  0.50310464193E+03  0.00000000000E+00 0.  1.
         -3    1    1    2    0  502 -0.38572682940E+02  0.29030203718E+02 -0.40730115820E+03  0.41015221329E+03  0.00000000000E+00 0. -1.
<mgrwt>
<rscale>  1 0.30000000E+03</rscale>
<asrwt>0</asrwt>
<pdfrwt beam="1">  1       21 0.87844056E-02 0.30000000E+03</pdfrwt>
<pdfrwt beam="2">0</pdfrwt>
<totfact> 0.10833111E+04</totfact>
</mgrwt>
</event>
<event>
 6    1  0.1273846E-001  0.3000000E+03  0.7818608E-02  0.1093470E+00
         21   -1    0    0  501  502  0.00000000000E+00  0.00000000000E+00  0.53851875107E+01  0.53851875107E+01  0.00000000000E+00 0. -1.
         13   -1    0    0    0    0 -0.00000000000E+00 -0.00000000000E+00 -0.10000000000E+04  0.10000000000E+04  0.00000000000E+00 0.  1.
    9000005    2    1    2  501    0  0.26477662000E+02  0.19966820222E+02 -0.94570786845E+03  0.94629517423E+03  0.33828714537E+01 0.  0.
         13    1    3    3    0    0  0.17691642831E+02  0.11598271739E+02 -0.57666572992E+03  0.57705361813E+03  0.00000000000E+00 0.  1.
          3    1    3    3  501    0  0.87860191687E+01  0.83685484823E+01 -0.36904213853E+03  0.36924155609E+03  0.00000000000E+00 0.  1.
         -1    1    1    2    0  502 -0.26477662000E+02 -0.19966820222E+02 -0.48906944038E+02  0.59090013283E+02  0.00000000000E+00 0. -1.
<mgrwt>
<rscale>  1 0.30000000E+03</rscale>
<asrwt>0</asrwt>
<pdfrwt beam="1">  1       21 0.19582541E-01 0.30000000E+03</pdfrwt>
<pdfrwt beam="2">0</pdfrwt>
<totfact> 0.24976494E+03</totfact>
</mgrwt>
</event>
<event>
 6    1  0.1273846E-001  0.3000000E+03  0.7818608E-02  0.1093470E+00
         21   -1    0    0  501  502  0.00000000000E+00  0.00000000000E+00  0.13727096969E+01  0.13727096969E+01  0.00000000000E+00 0. -1.
         13   -1    0    0    0    0 -0.00000000000E+00 -0.00000000000E+00 -0.10000000000E+04  0.10000000000E+04  0.00000000000E+00 0.  1.
    9000005    2    1    2  501    0  0.27183263265E+02 -0.23621910394E+02 -0.61361554559E+03  0.61468036685E+03  0.33152894368E+01 0.  0.
         13    1    3    3    0    0  0.97368032986E+01 -0.76984430530E+01 -0.18713614339E+03  0.18754734742E+03  0.00000000000E+00 0.  1.
          1    1    3    3  501    0  0.17446459967E+02 -0.15923467341E+02 -0.42647940220E+03  0.42713301942E+03  0.00000000000E+00 0.  1.
         -1    1    1    2    0  502 -0.27183263265E+02  0.23621910394E+02 -0.38501174471E+03  0.38669234285E+03  0.00000000000E+00 0. -1.
<mgrwt>
<rscale>  1 0.30000000E+03</rscale>
<asrwt>0</asrwt>
<pdfrwt beam="1">  1       21 0.49916822E-02 0.30000000E+03</pdfrwt>
<pdfrwt beam="2">0</pdfrwt>
<totfact> 0.28886524E+04</totfact>
</mgrwt>
</event>
<event>
 6    1  0.1273846E-001  0.3000000E+03  0.7818608E-02  0.1093470E+00
         21   -1    0    0  501  502  0.00000000000E+00  0.00000000000E+00  0.28495821420E+01  0.28495821420E+01  0.00000000000E+00 0. -1.
         13   -1    0    0    0    0 -0.00000000000E+00 -0.00000000000E+00 -0.10000000000E+04  0.10000000000E+04  0.00000000000E+00 0.  1.
    9000005    2    1    2  501    0 -0.33688742211E+02 -0.12036369041E+02 -0.87062367632E+03  0.87136261756E+03  0.27239632593E+01 0.  0.
         13    1    3    3    0    0 -0.59944363941E+01 -0.10585663954E+01 -0.14733646012E+03  0.14746215213E+03  0.00000000000E+00 0.  1.
          1    1    3    3  501    0 -0.27694305817E+02 -0.10977802646E+02 -0.72328721620E+03  0.72390046542E+03  0.00000000000E+00 0.  1.
         -3    1    1    2    0  502  0.33688742211E+02  0.12036369041E+02 -0.12652674154E+03  0.13148696458E+03  0.00000000000E+00 0. -1.
<mgrwt>
<rscale>  1 0.30000000E+03</rscale>
<asrwt>0</asrwt>
<pdfrwt beam="1">  1       21 0.10362139E-01 0.30000000E+03</pdfrwt>
<pdfrwt beam="2">0</pdfrwt>
<totfact> 0.80727908E+03</totfact>
</mgrwt>
</event>
<event>
 6    1  0.1273846E-001  0.3000000E+03  0.7818608E-02  0.1093470E+00
         21   -1    0    0  501  502  0.00000000000E+00  0.00000000000E+00  0.16137113692E+01  0.16137113692E+01  0.00000000000E+00 0. -1.
         13   -1    0    0    0    0 -0.00000000000E+00 -0.00000000000E+00 -0.10000000000E+04  0.10000000000E+04  0.00000000000E+00 0.  1.
    9000005    2    1    2  501    0  0.28968647840E+01  0.34827952607E+02 -0.74539311513E+03  0.74621808896E+03  0.30268957356E+01 0.  0.
         13    1    3    3    0    0  0.10775714341E+01  0.26387637722E+02 -0.54694229967E+03  0.54757953555E+03  0.00000000000E+00 0.  1.
          1    1    3    3  501    0  0.18192933500E+01  0.84403148845E+01 -0.19845081546E+03  0.19863855341E+03  0.00000000000E+00 0.  1.
         -3    1    1    2    0  502 -0.28968647840E+01 -0.34827952607E+02 -0.25299317350E+03  0.25539562241E+03  0.00000000000E+00 0. -1.
<mgrwt>
<rscale>  1 0.30000000E+03</rscale>
<asrwt>0</asrwt>
<pdfrwt beam="1">  1       21 0.58680537E-02 0.30000000E+03</pdfrwt>
<pdfrwt beam="2">0</pdfrwt>
<totfact> 0.21895102E+04</totfact>
</mgrwt>
</event>
<event>
 6    1  0.1273846E-001  0.3000000E+03  0.7818608E-02  0.1093470E+00
         21   -1    0    0  501  502  0.00000000000E+00  0.00000000000E+00  0.12057426097E+01  0.12057426097E+01  0.00000000000E+00 0. -1.
         13   -1    0    0    0    0 -0.00000000000E+00 -0.00000000000E+00 -0.10000000000E+04  0.10000000000E+04  0.00000000000E+00 0.  1.
    9000005    2    1    2  501    0 -0.33843254450E+02 -0.25173189361E+01 -0.59983002743E+03  0.60080074819E+03  0.37113953690E+01 0.  0.
         13    1    3    3    0    0 -0.17970541858E+02 -0.26334603855E+01 -0.29664775806E+03  0.29720324333E+03  0.00000000000E+00 0.  1.
          3    1    3    3  501    0 -0.15872712592E+02  0.11614144936E+00 -0.30318226937E+03  0.30359750486E+03  0.00000000000E+00 0.  1.
         -1    1    1    2    0  502  0.33843254450E+02  0.25173189361E+01 -0.39896422996E+03  0.40040499442E+03  0.00000000000E+00 0. -1.
<mgrwt>
<rscale>  1 0.30000000E+03</rscale>
<asrwt>0</asrwt>
<pdfrwt beam="1">  1       21 0.43845278E-02 0.30000000E+03</pdfrwt>
<pdfrwt beam="2">0</pdfrwt>
<totfact> 0.36010618E+04</totfact>
</mgrwt>
</event>
<event>
 6    1  0.1273846E-001  0.3000000E+03  0.7818608E-02  0.1093470E+00
         21   -1    0    0  501  502  0.00000000000E+00  0.00000000000E+00  0.31359077364E+01  0.31359077364E+01  0.00000000000E+00 0. -1.
         13   -1    0    0    0    0 -0.00000000000E+00 -0.00000000000E+00 -0.10000000000E+04  0.10000000000E+04  0.00000000000E+00 0.  1.
    9000005    2    1    2  501    0 -0.14843636507E+02  0.44202258547E+02 -0.22199939955E+03  0.22686954545E+03  0.34473244877E+01 0.  0.
         13    1    3    3    0    0 -0.44993092911E+01  0.98136523641E+01 -0.47074248588E+02  0.48296339789E+02  0.00000000000E+00 0.  1.
          1    1    3    3  501    0 -0.10344327216E+02  0.34388606183E+02 -0.17492515097E+03  0.17857320566E+03  0.00000000000E+00 0.  1.
         -3    1    1    2    0  502  0.14843636507E+02 -0.44202258547E+02 -0.77486469271E+03  0.77626636228E+03  0.00000000000E+00 0. -1.
<mgrwt>
<rscale>  1 0.30000000E+03</rscale>
<asrwt>0</asrwt>
<pdfrwt beam="1">  1       21 0.11403325E-01 0.30000000E+03</pdfrwt>
<pdfrwt beam="2">0</pdfrwt>
<totfact> 0.67963775E+03</totfact>
</mgrwt>
</event>
<event>
 6    1  0.1273846E-001  0.3000000E+03  0.7818608E-02  0.1093470E+00
         21   -1    0    0  501  502  0.00000000000E+00  0.00000000000E+00  0.47618686445E+01  0.47618686445E+01  0.00000000000E+00 0. -1.
         13   -1    0    0    0    0 -0.00000000000E+00 -0.00000000000E+00 -0.10000000000E+04  0.10000000000E+04  0.00000000000E+00 0.  1.
    9000005    2    1    2  501    0  0.20977596351E+01 -0.64991324605E+02 -0.66530671605E+03  0.66848369261E+03  0.30245659976E+01 0.  0.
         13    1    3    3    0    0  0.22411181703E+01 -0.44201720842E+02 -0.46432575628E+03  0.46643029777E+03  0.00000000000E+00 0.  1.
          3    1    3    3  501    0 -0.14335853515E+00 -0.20789603763E+02 -0.20098095977E+03  0.20205339484E+03  0.00000000000E+00 0.  1.
         -3    1    1    2    0  502 -0.20977596351E+01  0.64991324605E+02 -0.32993141531E+03  0.33627817603E+03  0.00000000000E+00 0. -1.
<mgrwt>
<rscale>  1 0.30000000E+03</rscale>
<asrwt>0</asrwt>
<pdfrwt beam="1">  1       21 0.17315922E-01 0.30000000E+03</pdfrwt>
<pdfrwt beam="2">0</pdfrwt>
<totfact> 0.31508684E+03</totfact>
</mgrwt>
</event>
<event>
 6    1  0.1273846E-001  0.3000000E+03  0.7818608E-02  0.1093470E+00
         21   -1    0    0  501  502  0.00000000000E+00  0.00000000000E+00  0.19680493328E+01  0.19680493328E+01  0.00000000000E+00 0. -1.
         13   -1    0    0    0    0 -0.00000000000E+00 -0.00000000000E+00 -0.10000000000E+04  0.10000000000E+04  0.00000000000E+00 0.  1.
    9000005    2    1    2  501    0 -0.34767804137E+02  0.19991274111E+02 -0.71226334119E+03  0.71339890786E+03  0.32377915836E+01 0.  0.
         13    1    3    3    0    0 -0.29085823480E+02  0.15450352551E+02 -0.59328837166E+03  0.59420180954E+03  0.00000000000E+00 0.  1.
          1    1    3    3  501    0 -0.56819806571E+01  0.45409215592E+01 -0.11897496953E+03  0.11919709832E+03  0.00000000000E+00 0.  1.
         -3    1    1    2    0  502  0.34767804137E+02 -0.19991274111E+02 -0.28576860948E+03  0.28856914147E+03  0.00000000000E+00 0. -1.
<mgrwt>
<rscale>  1 0.30000000E+03</rscale>
<asrwt>0</asrwt>
<pdfrwt beam="1">  1       21 0.71565581E-02 0.30000000E+03</pdfrwt>
<pdfrwt beam="2">0</pdfrwt>
<totfact> 0.15525420E+04</totfact>
</mgrwt>
</event>
<event>
 6    1  0.1273846E-001  0.3000000E+03  0.7818608E-02  0.1093470E+00
         21   -1    0    0  501  502  0.00000000000E+00  0.00000000000E+00  0.18357163494E+01  0.18357163494E+01  0.00000000000E+00 0. -1.
         13   -1    0    0    0    0 -0.00000000000E+00 -0.00000000000E+00 -0.10000000000E+04  0.10000000000E+04  0.00000000000E+00 0.  1.
    9000005    2    1    2  501    0 -0.51965464588E+01  0.30512820741E+02 -0.84474033758E+03  0.84532072169E+03  0.47799856683E+01 0.  0.
         13    1    3    3    0    0 -0.46203080428E+00  0.42990471412E+01 -0.16955109052E+03  0.16960621326E+03  0.00000000000E+00 0.  1.
          3    1    3    3  501    0 -0.47345156545E+01  0.26213773600E+02 -0.67518924705E+03  0.67571450843E+03  0.00000000000E+00 0.  1.
         -3    1    1    2    0  502  0.51965464588E+01 -0.30512820741E+02 -0.15342394607E+03  0.15651499466E+03  0.00000000000E+00 0. -1.
<mgrwt>
<rscale>  1 0.30000000E+03</rscale>
<asrwt>0</asrwt>
<pdfrwt beam="1">  1       21 0.66753463E-02 0.30000000E+03</pdfrwt>
<pdfrwt beam="2">0</pdfrwt>
<totfact> 0.17522866E+04</totfact>
</mgrwt>
</event>
<event>
 6    1  0.1273846E-001  0.3000000E+03  0.7818608E-02  0.1093470E+00
         21   -1    0    0  501  502  0.00000000000E+00  0.00000000000E+00  0.13193639012E+01  0.13193639012E+01  0.00000000000E+00 0. -1.
         13   -1    0    0    0    0 -0.00000000000E+00 -0.00000000000E+00 -0.10000000000E+04  0.10000000000E+04  0.00000000000E+00 0.  1.
    9000005    2    1    2  501    0  0.30852786473E+02 -0.16725366818E+02 -0.62487529251E+03  0.62587020992E+03  0.35715752465E+01 0.  0.
         13    1    3    3    0    0  0.17220012184E+02 -0.85479661040E+01 -0.37083737044E+03  0.37133536306E+03  0.00000000000E+00 0.  1.
          1    1    3    3  501    0  0.13632774289E+02 -0.81774007144E+01 -0.25403792207E+03  0.25453484686E+03  0.00000000000E+00 0.  1.
         -3    1    1    2    0  502 -0.30852786473E+02  0.16725366818E+02 -0.37380534359E+03  0.37544915398E+03  0.00000000000E+00 0. -1.
<mgrwt>
<rscale>  1 0.30000000E+03</rscale>
<asrwt>0</asrwt>
<pdfrwt beam="1">  1       21 0.47976970E-02 0.30000000E+03</pdfrwt>
<pdfrwt beam="2">0</pdfrwt>
<totfact> 0.30903767E+04</totfact>
</mgrwt>
</event>
<event>
 6    1  0.1273846E-001  0.3000000E+03  0.7818608E-02  0.1093470E+00
         21   -1    0    0  501  502  0.00000000000E+00  0.00000000000E+00  0.15404538870E+01  0.15404538870E+01  0.00000000000E+00 0. -1.
         13   -1    0    0    0    0 -0.00000000000E+00 -0.00000000000E+00 -0.10000000000E+04  0.10000000000E+04  0.00000000000E+00 0.  1.
    9000005    2    1    2  501    0  0.37790509623E+02  0.77474044531E+01 -0.41267062367E+03  0.41448269987E+03  0.32741348339E+01 0.  0.
         13    1    3    3    0    0  0.51575266389E+01 -0.29601611311E-01 -0.58384026889E+02  0.58611394397E+02  0.00000000000E+00 0.  1.
          3    1    3    3  501    0  0.32632982984E+02  0.77770060644E+01 -0.35428659678E+03  0.35587130548E+03  0.00000000000E+00 0.  1.
         -3    1    1    2    0  502 -0.37790509623E+02 -0.77474044531E+01 -0.58578892244E+03  0.58705775401E+03  0.00000000000E+00 0. -1.
<mgrwt>
<rscale>  1 0.30000000E+03</rscale>
<asrwt>0</asrwt>
<pdfrwt beam="1">  1       21 0.56016623E-02 0.30000000E+03</pdfrwt>
<pdfrwt beam="2">0</pdfrwt>
<totfact> 0.23716971E+04</totfact>
</mgrwt>
</event>
<event>
 6    1  0.1273846E-001  0.3000000E+03  0.7818608E-02  0.1093470E+00
         21   -1    0    0  501  502  0.00000000000E+00  0.00000000000E+00  0.11979421208E+01  0.11979421208E+01  0.00000000000E+00 0. -1.
         13   -1    0    0    0    0 -0.00000000000E+00 -0.00000000000E+00 -0.10000000000E+04  0.10000000000E+04  0.00000000000E+00 0.  1.
    9000005    2    1    2  501    0 -0.99175311745E+01  0.31545375619E+02 -0.64458214335E+03  0.64543788816E+03  0.32341606117E+01 0.  0.
         13    1    3    3    0    0 -0.83225288637E+01  0.21640401468E+02 -0.45603972036E+03  0.45662873103E+03  0.00000000000E+00 0.  1.
          3    1    3    3  501    0 -0.15950023108E+01  0.99049741513E+01 -0.18854242299E+03  0.18880915712E+03  0.00000000000E+00 0.  1.
         -3    1    1    2    0  502  0.99175311745E+01 -0.31545375619E+02 -0.35421991453E+03  0.35576005396E+03  0.00000000000E+00 0. -1.
<mgrwt>
<rscale>  1 0.30000000E+03</rscale>
<asrwt>0</asrwt>
<pdfrwt beam="1">  1       21 0.43561624E-02 0.30000000E+03</pdfrwt>
<pdfrwt beam="2">0</pdfrwt>
<totfact> 0.36408528E+04</totfact>
</mgrwt>
</event>
<event>
 6    1  0.1273846E-001  0.3000000E+03  0.7818608E-02  0.1093470E+00
         21   -1    0    0  501  502  0.00000000000E+00  0.00000000000E+00  0.15295702309E+01  0.15295702309E+01  0.00000000000E+00 0. -1.
         13   -1    0    0    0    0 -0.00000000000E+00 -0.00000000000E+00 -0.10000000000E+04  0.10000000000E+04  0.00000000000E+00 0.  1.
    9000005    2    1    2  501    0 -0.11542087671E+02 -0.29903495083E+02 -0.78552424796E+03  0.78618446313E+03  0.31979876866E+01 0.  0.
         13    1    3    3    0    0 -0.11480966528E+02 -0.29712422907E+02 -0.78403101214E+03  0.78467781202E+03  0.00000000000E+00 0.  1.
          1    1    3    3  501    0 -0.61121142885E-01 -0.19107217601E+00 -0.14932358140E+01  0.15066511098E+01  0.00000000000E+00 0.  1.
         -3    1    1    2    0  502  0.11542087671E+02  0.29903495083E+02 -0.21294618181E+03  0.21534510711E+03  0.00000000000E+00 0. -1.
<mgrwt>
<rscale>  1 0.30000000E+03</rscale>
<asrwt>0</asrwt>
<pdfrwt beam="1">  1       21 0.55620853E-02 0.30000000E+03</pdfrwt>
<pdfrwt beam="2">0</pdfrwt>
<totfact> 0.24007400E+04</totfact>
</mgrwt>
</event>
<event>
 6    1  0.1273846E-001  0.3000000E+03  0.7818608E-02  0.1093470E+00
         21   -1    0    0  501  502  0.00000000000E+00  0.00000000000E+00  0.17889905698E+01  0.17889905698E+01  0.00000000000E+00 0. -1.
         13   -1    0    0    0    0 -0.00000000000E+00 -0.00000000000E+00 -0.10000000000E+04  0.10000000000E+04  0.00000000000E+00 0.  1.
    9000005    2    1    2  501    0 -0.33554783081E+02  0.23986160385E+02 -0.60536626310E+03  0.60678487150E+03  0.42788353576E+01 0.  0.
         13    1    3    3    0    0 -0.29292252206E+02  0.22154361726E+02 -0.52288568483E+03  0.52417391311E+03  0.00000000000E+00 0.  1.
          3    1    3    3  501    0 -0.42625308745E+01  0.18317986583E+01 -0.82480578264E+02  0.82610958393E+02  0.00000000000E+00 0.  1.
         -1    1    1    2    0  502  0.33554783081E+02 -0.23986160385E+02 -0.39284474633E+03  0.39500411907E+03  0.00000000000E+00 0. -1.
<mgrwt>
<rscale>  1 0.30000000E+03</rscale>
<asrwt>0</asrwt>
<pdfrwt beam="1">  1       21 0.65054340E-02 0.30000000E+03</pdfrwt>
<pdfrwt beam="2">0</pdfrwt>
<totfact> 0.18323514E+04</totfact>
</mgrwt>
</event>
<event>
 6    1  0.1273846E-001  0.3000000E+03  0.7818608E-02  0.1093470E+00
         21   -1    0    0  501  502  0.00000000000E+00  0.00000000000E+00  0.99080116199E+00  0.99080116199E+00  0.00000000000E+00 0. -1.
         13   -1    0    0    0    0 -0.00000000000E+00 -0.00000000000E+00 -0.10000000000E+04  0.10000000000E+04  0.00000000000E+00 0.  1.
    9000005    2    1    2  501    0 -0.21795417801E+02  0.21818335740E+02 -0.41021170662E+03  0.41138621599E+03  0.37275257680E+01 0.  0.
         13    1    3    3    0    0 -0.49613675064E+01  0.60711089249E+01 -0.86369061395E+02  0.86724208254E+02  0.00000000000E+00 0.  1.
          3    1    3    3  501    0 -0.16834050295E+02  0.15747226815E+02 -0.32384264523E+03  0.32466200774E+03  0.00000000000E+00 0.  1.
         -3    1    1    2    0  502  0.21795417801E+02 -0.21818335740E+02 -0.58879749222E+03  0.58960458517E+03  0.00000000000E+00 0. -1.
<mgrwt>
<rscale>  1 0.30000000E+03</rscale>
<asrwt>0</asrwt>
<pdfrwt beam="1">  1       21 0.36029209E-02 0.30000000E+03</pdfrwt>
<pdfrwt beam="2">0</pdfrwt>
<totfact> 0.50122095E+04</totfact>
</mgrwt>
</event>
<event>
 6    1  0.1273846E-001  0.3000000E+03  0.7818608E-02  0.1093470E+00
         21   -1    0    0  501  502  0.00000000000E+00  0.00000000000E+00  0.54054290104E+01  0.54054290104E+01  0.00000000000E+00 0. -1.
         13   -1    0    0    0    0 -0.00000000000E+00 -0.00000000000E+00 -0.10000000000E+04  0.10000000000E+04  0.00000000000E+00 0.  1.
    9000005    2    1    2  501    0 -0.35384229231E+02  0.77790460490E+01 -0.93466095214E+03  0.93537260881E+03  0.42737146031E+01 0.  0.
         13    1    3    3    0    0 -0.26086690250E+02  0.75596749079E+01 -0.70960906265E+03  0.71012864038E+03  0.00000000000E+00 0.  1.
          1    1    3    3  501    0 -0.92975389810E+01  0.21937114106E+00 -0.22505188949E+03  0.22524396843E+03  0.00000000000E+00 0.  1.
         -1    1    1    2    0  502  0.35384229231E+02 -0.77790460490E+01 -0.59933618853E+02  0.70032820196E+02  0.00000000000E+00 0. -1.
<mgrwt>
<rscale>  1 0.30000000E+03</rscale>
<asrwt>0</asrwt>
<pdfrwt beam="1">  1       21 0.19656147E-01 0.30000000E+03</pdfrwt>
<pdfrwt beam="2">0</pdfrwt>
<totfact> 0.24798752E+03</totfact>
</mgrwt>
</event>
<event>
 6    1  0.1273846E-001  0.3000000E+03  0.7818608E-02  0.1093470E+00
         21   -1    0    0  501  502  0.00000000000E+00  0.00000000000E+00  0.26627964075E+01  0.26627964075E+01  0.00000000000E+00 0. -1.
         13   -1    0    0    0    0 -0.00000000000E+00 -0.00000000000E+00 -0.10000000000E+04  0.10000000000E+04  0.00000000000E+00 0.  1.
    9000005    2    1    2  501    0 -0.36101347567E+02 -0.41628794988E+01 -0.85438248168E+03  0.85516130699E+03  0.32862011492E+01 0.  0.
         13    1    3    3    0    0 -0.55278626099E+01 -0.16313492554E+01 -0.15176327565E+03  0.15187267826E+03  0.00000000000E+00 0.  1.
          1    1    3    3  501    0 -0.30573484957E+02 -0.25315302434E+01 -0.70261920602E+03  0.70328862873E+03  0.00000000000E+00 0.  1.
         -3    1    1    2    0  502  0.36101347567E+02  0.41628794988E+01 -0.14295472192E+03  0.14750148942E+03  0.00000000000E+00 0. -1.
<mgrwt>
<rscale>  1 0.30000000E+03</rscale>
<asrwt>0</asrwt>
<pdfrwt beam="1">  1       21 0.96829164E-02 0.30000000E+03</pdfrwt>
<pdfrwt beam="2">0</pdfrwt>
<totfact> 0.91125851E+03</totfact>
</mgrwt>
</event>
<event>
 6    1  0.1273846E-001  0.3000000E+03  0.7818608E-02  0.1093470E+00
         21   -1    0    0  501  502  0.00000000000E+00  0.00000000000E+00  0.84295570274E+01  0.84295570274E+01  0.00000000000E+00 0. -1.
         13   -1    0    0    0    0 -0.00000000000E+00 -0.00000000000E+00 -0.10000000000E+04  0.10000000000E+04  0.00000000000E+00 0.  1.
    9000005    2    1    2  501    0  0.26649380642E+02  0.25142716925E+02 -0.95806433601E+03  0.95878074127E+03  0.55580732186E+01 0.  0.
         13    1    3    3    0    0  0.17884844958E+02  0.14878075769E+02 -0.54598787111E+03  0.54648328448E+03  0.00000000000E+00 0.  1.
          1    1    3    3  501    0  0.87645356838E+01  0.10264641156E+02 -0.41207646491E+03  0.41229745679E+03  0.00000000000E+00 0.  1.
         -1    1    1    2    0  502 -0.26649380642E+02 -0.25142716925E+02 -0.33506106959E+02  0.49648815762E+02  0.00000000000E+00 0. -1.
<mgrwt>
<rscale>  1 0.30000000E+03</rscale>
<asrwt>0</asrwt>
<pdfrwt beam="1">  1       21 0.30652999E-01 0.30000000E+03</pdfrwt>
<pdfrwt beam="2">0</pdfrwt>
<totfact> 0.10413666E+03</totfact>
</mgrwt>
</event>
<event>
 6    1  0.1273846E-001  0.3000000E+03  0.7818608E-02  0.1093470E+00
         21   -1    0    0  501  502  0.00000000000E+00  0.00000000000E+00  0.99259409152E+00  0.99259409152E+00  0.00000000000E+00 0. -1.
         13   -1    0    0    0    0 -0.00000000000E+00 -0.00000000000E+00 -0.10000000000E+04  0.10000000000E+04  0.00000000000E+00 0.  1.
    9000005    2    1    2  501    0 -0.28651285661E+02  0.11764068943E+02 -0.58059019644E+03  0.58143061933E+03  0.41592549520E+01 0.  0.
         13    1    3    3    0    0 -0.13670992851E+02  0.33928769149E+01 -0.25704827979E+03  0.25743392512E+03  0.00000000000E+00 0.  1.
          3    1    3    3  501    0 -0.14980292809E+02  0.83711920281E+01 -0.32354191666E+03  0.32399669422E+03  0.00000000000E+00 0.  1.
         -1    1    1    2    0  502  0.28651285661E+02 -0.11764068943E+02 -0.41841720946E+03  0.41956197476E+03  0.00000000000E+00 0. -1.
<mgrwt>
<rscale>  1 0.30000000E+03</rscale>
<asrwt>0</asrwt>
<pdfrwt beam="1">  1       21 0.36094407E-02 0.30000000E+03</pdfrwt>
<pdfrwt beam="2">0</pdfrwt>
<totfact> 0.49970355E+04</totfact>
</mgrwt>
</event>
<event>
 6    1  0.1273846E-001  0.3000000E+03  0.7818608E-02  0.1093470E+00
         21   -1    0    0  501  502  0.00000000000E+00  0.00000000000E+00  0.20804101046E+01  0.20804101046E+01  0.00000000000E+00 0. -1.
         13   -1    0    0    0    0 -0.00000000000E+00 -0.00000000000E+00 -0.10000000000E+04  0.10000000000E+04  0.00000000000E+00 0.  1.
    9000005    2    1    2  501    0 -0.52066149526E+01  0.32625806603E+02 -0.84409909074E+03  0.84475177935E+03  0.32774418945E+01 0.  0.
         13    1    3    3    0    0 -0.30653863108E+01  0.24224253962E+02 -0.65223453461E+03  0.65269142726E+03  0.00000000000E+00 0.  1.
          3    1    3    3  501    0 -0.21412286418E+01  0.84015526409E+01 -0.19186455613E+03  0.19206035209E+03  0.00000000000E+00 0.  1.
         -1    1    1    2    0  502  0.52066149526E+01 -0.32625806603E+02 -0.15382049915E+03  0.15732863076E+03  0.00000000000E+00 0. -1.
<mgrwt>
<rscale>  1 0.30000000E+03</rscale>
<asrwt>0</asrwt>
<pdfrwt beam="1">  1       21 0.75651436E-02 0.30000000E+03</pdfrwt>
<pdfrwt beam="2">0</pdfrwt>
<totfact> 0.14089456E+04</totfact>
</mgrwt>
</event>
<event>
 6    1  0.1273846E-001  0.3000000E+03  0.7818608E-02  0.1093470E+00
         21   -1    0    0  501  502  0.00000000000E+00  0.00000000000E+00  0.79826041206E+01  0.79826041206E+01  0.00000000000E+00 0. -1.
         13   -1    0    0    0    0 -0.00000000000E+00 -0.00000000000E+00 -0.10000000000E+04  0.10000000000E+04  0.00000000000E+00 0.  1.
    9000005    2    1    2  501    0 -0.48880402249E+02 -0.41583945682E+02 -0.84659318823E+03  0.84902752105E+03  0.30309876893E+01 0.  0.
         13    1    3    3    0    0 -0.32367069018E+02 -0.28405583292E+02 -0.58436408288E+03  0.58594870568E+03  0.00000000000E+00 0.  1.
          1    1    3    3  501    0 -0.16513333231E+02 -0.13178362390E+02 -0.26222910534E+03  0.26307881537E+03  0.00000000000E+00 0.  1.
         -1    1    1    2    0  502  0.48880402249E+02  0.41583945682E+02 -0.14542420765E+03  0.15895508307E+03  0.00000000000E+00 0. -1.
<mgrwt>
<rscale>  1 0.30000000E+03</rscale>
<asrwt>0</asrwt>
<pdfrwt beam="1">  1       21 0.29027713E-01 0.30000000E+03</pdfrwt>
<pdfrwt beam="2">0</pdfrwt>
<totfact> 0.11611787E+03</totfact>
</mgrwt>
</event>
<event>
 6    1  0.1273846E-001  0.3000000E+03  0.7818608E-02  0.1093470E+00
         21   -1    0    0  501  502  0.00000000000E+00  0.00000000000E+00  0.26045957461E+01  0.26045957461E+01  0.00000000000E+00 0. -1.
         13   -1    0    0    0    0 -0.00000000000E+00 -0.00000000000E+00 -0.10000000000E+04  0.10000000000E+04  0.00000000000E+00 0.  1.
    9000005    2    1    2  501    0  0.79051328913E+00  0.43449155777E+02 -0.75754936341E+03  0.75885353963E+03  0.94447105639E+01 0.  0.
         13    1    3    3    0    0  0.42216066941E+01  0.10666299617E+02 -0.18223271193E+03  0.18259340955E+03  0.00000000000E+00 0.  1.
          3    1    3    3  501    0 -0.34310934050E+01  0.32782856160E+02 -0.57531665147E+03  0.57626013008E+03  0.00000000000E+00 0.  1.
         -1    1    1    2    0  502 -0.79051328913E+00 -0.43449155777E+02 -0.23984604085E+03  0.24375105612E+03  0.00000000000E+00 0. -1.
<mgrwt>
<rscale>  1 0.30000000E+03</rscale>
<asrwt>0</asrwt>
<pdfrwt beam="1">  1       21 0.94712772E-02 0.30000000E+03</pdfrwt>
<pdfrwt beam="2">0</pdfrwt>
<totfact> 0.94787060E+03</totfact>
</mgrwt>
</event>
<event>
 6    1  0.1273846E-001  0.3000000E+03  0.7818608E-02  0.1093470E+00
         21   -1    0    0  501  502  0.00000000000E+00  0.00000000000E+00  0.25975487353E+01  0.25975487353E+01  0.00000000000E+00 0. -1.
         13   -1    0    0    0    0 -0.00000000000E+00 -0.00000000000E+00 -0.10000000000E+04  0.10000000000E+04  0.00000000000E+00 0.  1.
    9000005    2    1    2  501    0 -0.84269370763E+01  0.33604314230E+02 -0.86619536503E+03  0.86689359640E+03  0.31358990421E+01 0.  0.
         13    1    3    3    0    0 -0.76395464466E+01  0.24874867950E+02 -0.64805108860E+03  0.64857330747E+03  0.00000000000E+00 0.  1.
          1    1    3    3  501    0 -0.78739062974E+00  0.87294462797E+01 -0.21814427643E+03  0.21832028893E+03  0.00000000000E+00 0.  1.
         -1    1    1    2    0  502  0.84269370763E+01 -0.33604314230E+02 -0.13120708623E+03  0.13570395234E+03  0.00000000000E+00 0. -1.
<mgrwt>
<rscale>  1 0.30000000E+03</rscale>
<asrwt>0</asrwt>
<pdfrwt beam="1">  1       21 0.94456517E-02 0.30000000E+03</pdfrwt>
<pdfrwt beam="2">0</pdfrwt>
<totfact> 0.95245404E+03</totfact>
</mgrwt>
</event>
<event>
 6    1  0.1273846E-001  0.3000000E+03  0.7818608E-02  0.1093470E+00
         21   -1    0    0  501  502  0.00000000000E+00  0.00000000000E+00  0.14147942381E+01  0.14147942381E+01  0.00000000000E+00 0. -1.
         13   -1    0    0    0    0 -0.00000000000E+00 -0.00000000000E+00 -0.10000000000E+04  0.10000000000E+04  0.00000000000E+00 0.  1.
    9000005    2    1    2  501    0  0.27442918710E+02  0.13633024063E+02 -0.78900676376E+03  0.78960805100E+03  0.31980932664E+01 0.  0.
         13    1    3    3    0    0  0.13054662411E+02  0.47188922051E+01 -0.35114022582E+03  0.35141449934E+03  0.00000000000E+00 0.  1.
          1    1    3    3  501    0  0.14388256299E+02  0.89141318574E+01 -0.43786653794E+03  0.43819355166E+03  0.00000000000E+00 0.  1.
         -1    1    1    2    0  502 -0.27442918710E+02 -0.13633024063E+02 -0.20957844200E+03  0.21180674324E+03  0.00000000000E+00 0. -1.
<mgrwt>
<rscale>  1 0.30000000E+03</rscale>
<asrwt>0</asrwt>
<pdfrwt beam="1">  1       21 0.51447172E-02 0.30000000E+03</pdfrwt>
<pdfrwt beam="2">0</pdfrwt>
<totfact> 0.27436143E+04</totfact>
</mgrwt>
</event>
<event>
 6    1  0.1273846E-001  0.3000000E+03  0.7818608E-02  0.1093470E+00
         21   -1    0    0  501  502  0.00000000000E+00  0.00000000000E+00  0.11402556431E+01  0.11402556431E+01  0.00000000000E+00 0. -1.
         13   -1    0    0    0    0 -0.00000000000E+00 -0.00000000000E+00 -0.10000000000E+04  0.10000000000E+04  0.00000000000E+00 0.  1.
    9000005    2    1    2  501    0  0.17934676344E+02  0.28170590903E+02 -0.43468788541E+03  0.43598087880E+03  0.32456353219E+01 0.  0.
         13    1    3    3    0    0  0.14085558795E+02  0.20395554585E+02 -0.33543131903E+03  0.33634588060E+03  0.00000000000E+00 0.  1.
          3    1    3    3  501    0  0.38491175492E+01  0.77750363182E+01 -0.99256566385E+02  0.99634998199E+02  0.00000000000E+00 0.  1.
         -3    1    1    2    0  502 -0.17934676344E+02 -0.28170590903E+02 -0.56417185895E+03  0.56515937684E+03  0.00000000000E+00 0. -1.
<mgrwt>
<rscale>  1 0.30000000E+03</rscale>
<asrwt>0</asrwt>
<pdfrwt beam="1">  1       21 0.41463929E-02 0.30000000E+03</pdfrwt>
<pdfrwt beam="2">0</pdfrwt>
<totfact> 0.39575348E+04</totfact>
</mgrwt>
</event>
<event>
 6    1  0.1273846E-001  0.3000000E+03  0.7818608E-02  0.1093470E+00
         21   -1    0    0  501  502  0.00000000000E+00  0.00000000000E+00  0.13647912306E+01  0.13647912306E+01  0.00000000000E+00 0. -1.
         13   -1    0    0    0    0 -0.00000000000E+00 -0.00000000000E+00 -0.10000000000E+04  0.10000000000E+04  0.00000000000E+00 0.  1.
    9000005    2    1    2  501    0 -0.35230614755E+02 -0.82351190779E+01 -0.40709714193E+03  0.40872130824E+03  0.40014304644E+01 0.  0.
         13    1    3    3    0    0 -0.31040056978E+02 -0.81531492242E+01 -0.36956554352E+03  0.37095639897E+03  0.00000000000E+00 0.  1.
          3    1    3    3  501    0 -0.41905577766E+01 -0.81969853692E-01 -0.37531598402E+02  0.37764909269E+02  0.00000000000E+00 0.  1.
         -3    1    1    2    0  502  0.35230614755E+02  0.82351190779E+01 -0.59153806684E+03  0.59264348299E+03  0.00000000000E+00 0. -1.
<mgrwt>
<rscale>  1 0.30000000E+03</rscale>
<asrwt>0</asrwt>
<pdfrwt beam="1">  1       21 0.49628877E-02 0.30000000E+03</pdfrwt>
<pdfrwt beam="2">0</pdfrwt>
<totfact> 0.29172753E+04</totfact>
</mgrwt>
</event>
<event>
 6    1  0.1273846E-001  0.3000000E+03  0.7818608E-02  0.1093470E+00
         21   -1    0    0  501  502  0.00000000000E+00  0.00000000000E+00  0.10000234758E+01  0.10000234758E+01  0.00000000000E+00 0. -1.
         13   -1    0    0    0    0 -0.00000000000E+00 -0.00000000000E+00 -0.10000000000E+04  0.10000000000E+04  0.00000000000E+00 0.  1.
    9000005    2    1    2  501    0 -0.30895666383E+02  0.43172012254E+01 -0.42780636491E+03  0.42895516302E+03  0.33264988109E+01 0.  0.
         13    1    3    3    0    0 -0.25375619449E+01  0.23923748366E+00 -0.24412550816E+02  0.24545245823E+02  0.00000000000E+00 0.  1.
          1    1    3    3  501    0 -0.28358104439E+02  0.40779637417E+01 -0.40339381410E+03  0.40440991720E+03  0.00000000000E+00 0.  1.
         -1    1    1    2    0  502  0.30895666383E+02 -0.43172012254E+01 -0.57119361161E+03  0.57204486046E+03  0.00000000000E+00 0. -1.
<mgrwt>
<rscale>  1 0.30000000E+03</rscale>
<asrwt>0</asrwt>
<pdfrwt beam="1">  1       21 0.36364567E-02 0.30000000E+03</pdfrwt>
<pdfrwt beam="2">0</pdfrwt>
<totfact> 0.49349248E+04</totfact>
</mgrwt>
</event>
<event>
 6    1  0.1273846E-001  0.3000000E+03  0.7818608E-02  0.1093470E+00
         21   -1    0    0  501  502  0.00000000000E+00  0.00000000000E+00  0.95151907617E+00  0.95151907617E+00  0.00000000000E+00 0. -1.
         13   -1    0    0    0    0 -0.00000000000E+00 -0.00000000000E+00 -0.10000000000E+04  0.10000000000E+04  0.00000000000E+00 0.  1.
    9000005    2    1    2  501    0 -0.29306265057E+01  0.30565993126E+02 -0.53237944475E+03  0.53327336283E+03  0.31205453028E+01 0.  0.
         13    1    3    3    0    0  0.16333336901E+00  0.14103980130E+02 -0.24985283957E+03  0.25025065509E+03  0.00000000000E+00 0.  1.
          3    1    3    3  501    0 -0.30939598747E+01  0.16462012996E+02 -0.28252660518E+03  0.28302270774E+03  0.00000000000E+00 0.  1.
         -3    1    1    2    0  502  0.29306265057E+01 -0.30565993126E+02 -0.46666903618E+03  0.46767815625E+03  0.00000000000E+00 0. -1.
<mgrwt>
<rscale>  1 0.30000000E+03</rscale>
<asrwt>0</asrwt>
<pdfrwt beam="1">  1       21 0.34600767E-02 0.30000000E+03</pdfrwt>
<pdfrwt beam="2">0</pdfrwt>
<totfact> 0.53636915E+04</totfact>
</mgrwt>
</event>
<event>
 6    1  0.1273846E-001  0.3000000E+03  0.7818608E-02  0.1093470E+00
         21   -1    0    0  501  502  0.00000000000E+00  0.00000000000E+00  0.18904502075E+01  0.18904502075E+01  0.00000000000E+00 0. -1.
         13   -1    0    0    0    0 -0.00000000000E+00 -0.00000000000E+00 -0.10000000000E+04  0.10000000000E+04  0.00000000000E+00 0.  1.
    9000005    2    1    2  501    0  0.11278312211E+01  0.41904470216E+02 -0.62900603093E+03  0.63041411952E+03  0.40147866149E+01 0.  0.
         13    1    3    3    0    0  0.16231716419E+01  0.77735599650E+01 -0.10888208008E+03  0.10917128874E+03  0.00000000000E+00 0.  1.
          3    1    3    3  501    0 -0.49534042077E+00  0.34130910251E+02 -0.52012395085E+03  0.52124283078E+03  0.00000000000E+00 0.  1.
         -3    1    1    2    0  502 -0.11278312211E+01 -0.41904470216E+02 -0.36910351886E+03  0.37147633069E+03  0.00000000000E+00 0. -1.
<mgrwt>
<rscale>  1 0.30000000E+03</rscale>
<asrwt>0</asrwt>
<pdfrwt beam="1">  1       21 0.68743789E-02 0.30000000E+03</pdfrwt>
<pdfrwt beam="2">0</pdfrwt>
<totfact> 0.16651520E+04</totfact>
</mgrwt>
</event>
<event>
 6    1  0.1273846E-001  0.3000000E+03  0.7818608E-02  0.1093470E+00
         21   -1    0    0  501  502  0.00000000000E+00  0.00000000000E+00  0.29789168492E+01  0.29789168492E+01  0.00000000000E+00 0. -1.
         13   -1    0    0    0    0 -0.00000000000E+00 -0.00000000000E+00 -0.10000000000E+04  0.10000000000E+04  0.00000000000E+00 0.  1.
    9000005    2    1    2  501    0 -0.53349388252E+02  0.10167043299E+02 -0.46633820160E+03  0.46952428263E+03  0.56751840260E+01 0.  0.
         13    1    3    3    0    0 -0.42234392880E+02  0.98093743710E+01 -0.38337020174E+03  0.38581430682E+03  0.00000000000E+00 0.  1.
          1    1    3    3  501    0 -0.11114995372E+02  0.35766892846E+00 -0.82967999858E+02  0.83709975807E+02  0.00000000000E+00 0.  1.
         -1    1    1    2    0  502  0.53349388252E+02 -0.10167043299E+02 -0.53068288155E+03  0.53345463422E+03  0.00000000000E+00 0. -1.
<mgrwt>
<rscale>  1 0.30000000E+03</rscale>
<asrwt>0</asrwt>
<pdfrwt beam="1">  1       21 0.10832448E-01 0.30000000E+03</pdfrwt>
<pdfrwt beam="2">0</pdfrwt>
<totfact> 0.74549475E+03</totfact>
</mgrwt>
</event>
<event>
 6    1  0.1273846E-001  0.3000000E+03  0.7818608E-02  0.1093470E+00
         21   -1    0    0  501  502  0.00000000000E+00  0.00000000000E+00  0.11507603892E+01  0.11507603892E+01  0.00000000000E+00 0. -1.
         13   -1    0    0    0    0 -0.00000000000E+00 -0.00000000000E+00 -0.10000000000E+04  0.10000000000E+04  0.00000000000E+00 0.  1.
    9000005    2    1    2  501    0  0.22046818335E+02 -0.20360189116E+02 -0.73176098752E+03  0.73238183751E+03  0.29006140751E+01 0.  0.
         13    1    3    3    0    0  0.69898179126E+01 -0.54306973522E+01 -0.19003029927E+03  0.19023633898E+03  0.00000000000E+00 0.  1.
          1    1    3    3  501    0  0.15057000422E+02 -0.14929491764E+02 -0.54173068825E+03  0.54214549853E+03  0.00000000000E+00 0.  1.
         -3    1    1    2    0  502 -0.22046818335E+02  0.20360189116E+02 -0.26708825209E+03  0.26876892288E+03  0.00000000000E+00 0. -1.
<mgrwt>
<rscale>  1 0.30000000E+03</rscale>
<asrwt>0</asrwt>
<pdfrwt beam="1">  1       21 0.41845921E-02 0.30000000E+03</pdfrwt>
<pdfrwt beam="2">0</pdfrwt>
<totfact> 0.38967524E+04</totfact>
</mgrwt>
</event>
<event>
 6    1  0.1273846E-001  0.3000000E+03  0.7818608E-02  0.1093470E+00
         21   -1    0    0  501  502  0.00000000000E+00  0.00000000000E+00  0.37446744315E+01  0.37446744315E+01  0.00000000000E+00 0. -1.
         13   -1    0    0    0    0 -0.00000000000E+00 -0.00000000000E+00 -0.10000000000E+04  0.10000000000E+04  0.00000000000E+00 0.  1.
    9000005    2    1    2  501    0  0.35694407842E+02 -0.17449079247E+02 -0.87959181665E+03  0.88050127529E+03  0.47085835746E+01 0.  0.
         13    1    3    3    0    0  0.22531303241E+02 -0.86863229618E+01 -0.51013627249E+03  0.51070747825E+03  0.00000000000E+00 0.  1.
          3    1    3    3  501    0  0.13163104601E+02 -0.87627562856E+01 -0.36945554416E+03  0.36979379704E+03  0.00000000000E+00 0.  1.
         -1    1    1    2    0  502 -0.35694407842E+02  0.17449079247E+02 -0.11666350892E+03  0.12324339914E+03  0.00000000000E+00 0. -1.
<mgrwt>
<rscale>  1 0.30000000E+03</rscale>
<asrwt>0</asrwt>
<pdfrwt beam="1">  1       21 0.13617027E-01 0.30000000E+03</pdfrwt>
<pdfrwt beam="2">0</pdfrwt>
<totfact> 0.49208666E+03</totfact>
</mgrwt>
</event>
<event>
 6    1  0.1273846E-001  0.3000000E+03  0.7818608E-02  0.1093470E+00
         21   -1    0    0  501  502  0.00000000000E+00  0.00000000000E+00  0.13078876618E+01  0.13078876618E+01  0.00000000000E+00 0. -1.
         13   -1    0    0    0    0 -0.00000000000E+00 -0.00000000000E+00 -0.10000000000E+04  0.10000000000E+04  0.00000000000E+00 0.  1.
    9000005    2    1    2  501    0 -0.33184471578E+02 -0.47485701052E+00 -0.69635493309E+03  0.69715462925E+03  0.35985568296E+01 0.  0.
         13    1    3    3    0    0 -0.78551558501E+01  0.12346459159E+01 -0.15133289848E+03  0.15154165759E+03  0.00000000000E+00 0.  1.
          3    1    3    3  501    0 -0.25329315728E+02 -0.17095029264E+01 -0.54502203461E+03  0.54561297166E+03  0.00000000000E+00 0.  1.
         -1    1    1    2    0  502  0.33184471578E+02  0.47485701052E+00 -0.30233717925E+03  0.30415325841E+03  0.00000000000E+00 0. -1.
<mgrwt>
<rscale>  1 0.30000000E+03</rscale>
<asrwt>0</asrwt>
<pdfrwt beam="1">  1       21 0.47559652E-02 0.30000000E+03</pdfrwt>
<pdfrwt beam="2">0</pdfrwt>
<totfact> 0.31366519E+04</totfact>
</mgrwt>
</event>
<event>
 6    1  0.1273846E-001  0.3000000E+03  0.7818608E-02  0.1093470E+00
         21   -1    0    0  501  502  0.00000000000E+00  0.00000000000E+00  0.98780565775E+00  0.98780565775E+00  0.00000000000E+00 0. -1.
         13   -1    0    0    0    0 -0.00000000000E+00 -0.00000000000E+00 -0.10000000000E+04  0.10000000000E+04  0.00000000000E+00 0.  1.
    9000005    2    1    2  501    0  0.26679995831E+02  0.15563445517E+02 -0.41594587092E+03  0.41710392977E+03  0.32676718441E+01 0.  0.
         13    1    3    3    0    0  0.10519033248E+02  0.62804541188E+01 -0.18685533717E+03  0.18725653845E+03  0.00000000000E+00 0.  1.
          1    1    3    3  501    0  0.16160962584E+02  0.92829913985E+01 -0.22909053375E+03  0.22984739131E+03  0.00000000000E+00 0.  1.
         -1    1    1    2    0  502 -0.26679995831E+02 -0.15563445517E+02 -0.58306632342E+03  0.58388387589E+03  0.00000000000E+00 0. -1.
<mgrwt>
<rscale>  1 0.30000000E+03</rscale>
<asrwt>0</asrwt>
<pdfrwt beam="1">  1       21 0.35920281E-02 0.30000000E+03</pdfrwt>
<pdfrwt beam="2">0</pdfrwt>
<totfact> 0.50377238E+04</totfact>
</mgrwt>
</event>
<event>
 6    1  0.1273846E-001  0.3000000E+03  0.7818608E-02  0.1093470E+00
         21   -1    0    0  501  502  0.00000000000E+00  0.00000000000E+00  0.18549694615E+01  0.18549694615E+01  0.00000000000E+00 0. -1.
         13   -1    0    0    0    0 -0.00000000000E+00 -0.00000000000E+00 -0.10000000000E+04  0.10000000000E+04  0.00000000000E+00 0.  1.
    9000005    2    1    2  501    0  0.11797405817E+02 -0.35952308117E+02 -0.73741525207E+03  0.73839384401E+03  0.35309554376E+01 0.  0.
         13    1    3    3    0    0 -0.10948101878E-01 -0.29711618517E+01 -0.56836349927E+02  0.56913957828E+02  0.00000000000E+00 0.  1.
          1    1    3    3  501    0  0.11808353919E+02 -0.32981146265E+02 -0.68057890214E+03  0.68147988618E+03  0.00000000000E+00 0.  1.
         -3    1    1    2    0  502 -0.11797405817E+02  0.35952308117E+02 -0.26072977847E+03  0.26346112545E+03  0.00000000000E+00 0. -1.
<mgrwt>
<rscale>  1 0.30000000E+03</rscale>
<asrwt>0</asrwt>
<pdfrwt beam="1">  1       21 0.67453577E-02 0.30000000E+03</pdfrwt>
<pdfrwt beam="2">0</pdfrwt>
<totfact> 0.17208541E+04</totfact>
</mgrwt>
</event>
<event>
 6    1  0.1273846E-001  0.3000000E+03  0.7818608E-02  0.1093470E+00
         21   -1    0    0  501  502  0.00000000000E+00  0.00000000000E+00  0.39041077753E+01  0.39041077753E+01  0.00000000000E+00 0. -1.
         13   -1    0    0    0    0 -0.00000000000E+00 -0.00000000000E+00 -0.10000000000E+04  0.10000000000E+04  0.00000000000E+00 0.  1.
    9000005    2    1    2  501    0 -0.86186018924E+01 -0.39609787006E+02 -0.87968897494E+03  0.88064103172E+03  0.57200179253E+01 0.  0.
         13    1    3    3    0    0 -0.90170839514E+01 -0.38885467421E+02 -0.87057028723E+03  0.87148494674E+03  0.00000000000E+00 0.  1.
          3    1    3    3  501    0  0.39848205906E+00 -0.72431958486E+00 -0.91186877032E+01  0.91560849843E+01  0.00000000000E+00 0.  1.
         -3    1    1    2    0  502  0.86186018924E+01  0.39609787006E+02 -0.11640691729E+03  0.12326307605E+03  0.00000000000E+00 0. -1.
<mgrwt>
<rscale>  1 0.30000000E+03</rscale>
<asrwt>0</asrwt>
<pdfrwt beam="1">  1       21 0.14196785E-01 0.30000000E+03</pdfrwt>
<pdfrwt beam="2">0</pdfrwt>
<totfact> 0.45581856E+03</totfact>
</mgrwt>
</event>
<event>
 6    1  0.1273846E-001  0.3000000E+03  0.7818608E-02  0.1093470E+00
         21   -1    0    0  501  502  0.00000000000E+00  0.00000000000E+00  0.17848204861E+01  0.17848204861E+01  0.00000000000E+00 0. -1.
         13   -1    0    0    0    0 -0.00000000000E+00 -0.00000000000E+00 -0.10000000000E+04  0.10000000000E+04  0.00000000000E+00 0.  1.
    9000005    2    1    2  501    0 -0.34811179393E+02  0.23868118921E+02 -0.49175365997E+03  0.49356756764E+03  0.24034185780E+01 0.  0.
         13    1    3    3    0    0 -0.20552729225E+01  0.21475159172E+01 -0.33902497658E+02  0.34032562626E+02  0.00000000000E+00 0.  1.
          3    1    3    3  501    0 -0.32755906470E+02  0.21720603004E+02 -0.45785116231E+03  0.45953500502E+03  0.00000000000E+00 0.  1.
         -3    1    1    2    0  502  0.34811179393E+02 -0.23868118921E+02 -0.50646151954E+03  0.50821725284E+03  0.00000000000E+00 0. -1.
<mgrwt>
<rscale>  1 0.30000000E+03</rscale>
<asrwt>0</asrwt>
<pdfrwt beam="1">  1       21 0.64902700E-02 0.30000000E+03</pdfrwt>
<pdfrwt beam="2">0</pdfrwt>
<totfact> 0.18397699E+04</totfact>
</mgrwt>
</event>
<event>
 6    1  0.1273846E-001  0.3000000E+03  0.7818608E-02  0.1093470E+00
         21   -1    0    0  501  502  0.00000000000E+00  0.00000000000E+00  0.21957255953E+02  0.21957255953E+02  0.00000000000E+00 0. -1.
         13   -1    0    0    0    0 -0.00000000000E+00 -0.00000000000E+00 -0.10000000000E+04  0.10000000000E+04  0.00000000000E+00 0.  1.
    9000005    2    1    2  501    0  0.46521831225E+02 -0.13492698777E+03 -0.62482764518E+03  0.64099731203E+03  0.99194272752E+01 0.  0.
         13    1    3    3    0    0  0.61287907237E+00 -0.91725037626E+01 -0.40722793998E+02  0.41747531629E+02  0.00000000000E+00 0.  1.
          3    1    3    3  501    0  0.45908952153E+02 -0.12575448400E+03 -0.58410485118E+03  0.59924978040E+03  0.00000000000E+00 0.  1.
         -3    1    1    2    0  502 -0.46521831225E+02  0.13492698777E+03 -0.35321509886E+03  0.38095994392E+03  0.00000000000E+00 0. -1.
<mgrwt>
<rscale>  1 0.30000000E+03</rscale>
<asrwt>0</asrwt>
<pdfrwt beam="1">  1       21 0.79844735E-01 0.30000000E+03</pdfrwt>
<pdfrwt beam="2">0</pdfrwt>
<totfact> 0.12930068E+02</totfact>
</mgrwt>
</event>
<event>
 6    1  0.1273846E-001  0.3000000E+03  0.7818608E-02  0.1093470E+00
         21   -1    0    0  501  502  0.00000000000E+00  0.00000000000E+00  0.58260849553E+01  0.58260849553E+01  0.00000000000E+00 0. -1.
         13   -1    0    0    0    0 -0.00000000000E+00 -0.00000000000E+00 -0.10000000000E+04  0.10000000000E+04  0.00000000000E+00 0.  1.
    9000005    2    1    2  501    0 -0.60915915164E+02 -0.38885402516E+02 -0.65841908167E+03  0.66238157505E+03  0.32925082228E+01 0.  0.
         13    1    3    3    0    0 -0.46589614022E+02 -0.28070960647E+02 -0.49318555382E+03  0.49617593802E+03  0.00000000000E+00 0.  1.
          1    1    3    3  501    0 -0.14326301143E+02 -0.10814441869E+02 -0.16523352785E+03  0.16620563704E+03  0.00000000000E+00 0.  1.
         -3    1    1    2    0  502  0.60915915164E+02  0.38885402516E+02 -0.33575483337E+03  0.34344450990E+03  0.00000000000E+00 0. -1.
<mgrwt>
<rscale>  1 0.30000000E+03</rscale>
<asrwt>0</asrwt>
<pdfrwt beam="1">  1       21 0.21185808E-01 0.30000000E+03</pdfrwt>
<pdfrwt beam="2">0</pdfrwt>
<totfact> 0.21488154E+03</totfact>
</mgrwt>
</event>
<event>
 6    1  0.1273846E-001  0.3000000E+03  0.7818608E-02  0.1093470E+00
         21   -1    0    0  501  502  0.00000000000E+00  0.00000000000E+00  0.11811092749E+02  0.11811092749E+02  0.00000000000E+00 0. -1.
         13   -1    0    0    0    0 -0.00000000000E+00 -0.00000000000E+00 -0.10000000000E+04  0.10000000000E+04  0.00000000000E+00 0.  1.
    9000005    2    1    2  501    0 -0.40699534461E+02 -0.37858676544E+02 -0.92880342931E+03  0.93047004232E+03  0.29929679382E+01 0.  0.
         13    1    3    3    0    0 -0.40598120277E+02 -0.37692021594E+02 -0.92126225103E+03  0.92292634107E+03  0.00000000000E+00 0.  1.
          3    1    3    3  501    0 -0.10141418427E+00 -0.16665494974E+00 -0.75411782791E+01  0.75437012498E+01  0.00000000000E+00 0.  1.
         -3    1    1    2    0  502  0.40699534461E+02  0.37858676544E+02 -0.59385477939E+02  0.81341050430E+02  0.00000000000E+00 0. -1.
<mgrwt>
<rscale>  1 0.30000000E+03</rscale>
<asrwt>0</asrwt>
<pdfrwt beam="1">  1       21 0.42949519E-01 0.30000000E+03</pdfrwt>
<pdfrwt beam="2">0</pdfrwt>
<totfact> 0.52009151E+02</totfact>
</mgrwt>
</event>
<event>
 6    1  0.1273846E-001  0.3000000E+03  0.7818608E-02  0.1093470E+00
         21   -1    0    0  501  502  0.00000000000E+00  0.00000000000E+00  0.14999095945E+02  0.14999095945E+02  0.00000000000E+00 0. -1.
         13   -1    0    0    0    0 -0.00000000000E+00 -0.00000000000E+00 -0.10000000000E+04  0.10000000000E+04  0.00000000000E+00 0.  1.
    9000005    2    1    2  501    0 -0.40413879726E+02  0.33635887303E+02 -0.95083675652E+03  0.95229468170E+03  0.31573169956E+01 0.  0.
         13    1    3    3    0    0 -0.98955893879E+01  0.73297128909E+01 -0.24388282159E+03  0.24419352581E+03  0.00000000000E+00 0.  1.
          1    1    3    3  501    0 -0.30518290338E+02  0.26306174412E+02 -0.70695393493E+03  0.70810115589E+03  0.00000000000E+00 0.  1.
         -1    1    1    2    0  502  0.40413879726E+02 -0.33635887303E+02 -0.34164147533E+02  0.62704414245E+02  0.00000000000E+00 0. -1.
<mgrwt>
<rscale>  1 0.30000000E+03</rscale>
<asrwt>0</asrwt>
<pdfrwt beam="1">  1       21 0.54542282E-01 0.30000000E+03</pdfrwt>
<pdfrwt beam="2">0</pdfrwt>
<totfact> 0.31058071E+02</totfact>
</mgrwt>
</event>
<event>
 6    1  0.1273846E-001  0.3000000E+03  0.7818608E-02  0.1093470E+00
         21   -1    0    0  501  502  0.00000000000E+00  0.00000000000E+00  0.16896882506E+01  0.16896882506E+01  0.00000000000E+00 0. -1.
         13   -1    0    0    0    0 -0.00000000000E+00 -0.00000000000E+00 -0.10000000000E+04  0.10000000000E+04  0.00000000000E+00 0.  1.
    9000005    2    1    2  501    0  0.26582984229E+01  0.39136592874E+02 -0.64602257991E+03  0.64722475987E+03  0.39970706597E+01 0.  0.
         13    1    3    3    0    0  0.53564192519E+00  0.25581119453E+01 -0.60955837320E+02  0.61011842723E+02  0.00000000000E+00 0.  1.
          1    1    3    3  501    0  0.21226564977E+01  0.36578480929E+02 -0.58506674259E+03  0.58621291714E+03  0.00000000000E+00 0.  1.
         -1    1    1    2    0  502 -0.26582984229E+01 -0.39136592874E+02 -0.35228773184E+03  0.35446492838E+03  0.00000000000E+00 0. -1.
<mgrwt>
<rscale>  1 0.30000000E+03</rscale>
<asrwt>0</asrwt>
<pdfrwt beam="1">  1       21 0.61443339E-02 0.30000000E+03</pdfrwt>
<pdfrwt beam="2">0</pdfrwt>
<totfact> 0.20224868E+04</totfact>
</mgrwt>
</event>
<event>
 6    1  0.1273846E-001  0.3000000E+03  0.7818608E-02  0.1093470E+00
         21   -1    0    0  501  502  0.00000000000E+00  0.00000000000E+00  0.13729155813E+01  0.13729155813E+01  0.00000000000E+00 0. -1.
         13   -1    0    0    0    0 -0.00000000000E+00 -0.00000000000E+00 -0.10000000000E+04  0.10000000000E+04  0.00000000000E+00 0.  1.
    9000005    2    1    2  501    0  0.35691037104E+02 -0.93727357441E+01 -0.47306430550E+03  0.47451626251E+03  0.37613747067E+01 0.  0.
         13    1    3    3    0    0  0.24771550092E+02 -0.82677647746E+01 -0.33065963464E+03  0.33168928172E+03  0.00000000000E+00 0.  1.
          3    1    3    3  501    0  0.10919487011E+02 -0.11049709695E+01 -0.14240467086E+03  0.14282698079E+03  0.00000000000E+00 0.  1.
         -3    1    1    2    0  502 -0.35691037104E+02  0.93727357441E+01 -0.52556277891E+03  0.52685665307E+03  0.00000000000E+00 0. -1.
<mgrwt>
<rscale>  1 0.30000000E+03</rscale>
<asrwt>0</asrwt>
<pdfrwt beam="1">  1       21 0.49924308E-02 0.30000000E+03</pdfrwt>
<pdfrwt beam="2">0</pdfrwt>
<totfact> 0.28879140E+04</totfact>
</mgrwt>
</event>
<event>
 6    1  0.1273846E-001  0.3000000E+03  0.7818608E-02  0.1093470E+00
         21   -1    0    0  501  502  0.00000000000E+00  0.00000000000E+00  0.16683746544E+01  0.16683746544E+01  0.00000000000E+00 0. -1.
         13   -1    0    0    0    0 -0.00000000000E+00 -0.00000000000E+00 -0.10000000000E+04  0.10000000000E+04  0.00000000000E+00 0.  1.
    9000005    2    1    2  501    0  0.17990229272E+01  0.39607356792E+02 -0.61615083554E+03  0.61743649767E+03  0.37412993768E+01 0.  0.
         13    1    3    3    0    0 -0.31226805367E+00  0.23347076398E+02 -0.34269017629E+03  0.34348470186E+03  0.00000000000E+00 0.  1.
          3    1    3    3  501    0  0.21112909809E+01  0.16260280394E+02 -0.27346065926E+03  0.27395179581E+03  0.00000000000E+00 0.  1.
         -3    1    1    2    0  502 -0.17990229272E+01 -0.39607356792E+02 -0.38218078980E+03  0.38423187698E+03  0.00000000000E+00 0. -1.
<mgrwt>
<rscale>  1 0.30000000E+03</rscale>
<asrwt>0</asrwt>
<pdfrwt beam="1">  1       21 0.60668297E-02 0.30000000E+03</pdfrwt>
<pdfrwt beam="2">0</pdfrwt>
<totfact> 0.20672858E+04</totfact>
</mgrwt>
</event>
<event>
 6    1  0.1273846E-001  0.3000000E+03  0.7818608E-02  0.1093470E+00
         21   -1    0    0  501  502  0.00000000000E+00  0.00000000000E+00  0.12814690674E+01  0.12814690674E+01  0.00000000000E+00 0. -1.
         13   -1    0    0    0    0 -0.00000000000E+00 -0.00000000000E+00 -0.10000000000E+04  0.10000000000E+04  0.00000000000E+00 0.  1.
    9000005    2    1    2  501    0  0.32518790680E+02 -0.94386617765E+01 -0.35662796838E+03  0.35829869278E+03  0.69199229315E+01 0.  0.
         13    1    3    3    0    0  0.32480579874E+02 -0.88409648543E+01 -0.34057153215E+03  0.34223109040E+03  0.00000000000E+00 0.  1.
          3    1    3    3  501    0  0.38210805944E-01 -0.59769692223E+00 -0.16056436234E+02  0.16067602379E+02  0.00000000000E+00 0.  1.
         -1    1    1    2    0  502 -0.32518790680E+02  0.94386617765E+01 -0.64209056255E+03  0.64298277629E+03  0.00000000000E+00 0. -1.
<mgrwt>
<rscale>  1 0.30000000E+03</rscale>
<asrwt>0</asrwt>
<pdfrwt beam="1">  1       21 0.46598973E-02 0.30000000E+03</pdfrwt>
<pdfrwt beam="2">0</pdfrwt>
<totfact> 0.32473957E+04</totfact>
</mgrwt>
</event>
<event>
 6    1  0.1273846E-001  0.3000000E+03  0.7818608E-02  0.1093470E+00
         21   -1    0    0  501  502  0.00000000000E+00  0.00000000000E+00  0.19662736352E+01  0.19662736352E+01  0.00000000000E+00 0. -1.
         13   -1    0    0    0    0 -0.00000000000E+00 -0.00000000000E+00 -0.10000000000E+04  0.10000000000E+04  0.00000000000E+00 0.  1.
    9000005    2    1    2  501    0  0.17502635156E+01  0.44143794439E+02 -0.47839013468E+03  0.48044810483E+03  0.46392316644E+01 0.  0.
         13    1    3    3    0    0  0.16341978154E+00 -0.45666868559E-02 -0.45907093114E+01  0.45936193640E+01  0.00000000000E+00 0.  1.
          1    1    3    3  501    0  0.15868437341E+01  0.44148361126E+02 -0.47379942537E+03  0.47585448547E+03  0.00000000000E+00 0.  1.
         -3    1    1    2    0  502 -0.17502635156E+01 -0.44143794439E+02 -0.51964359169E+03  0.52151816880E+03  0.00000000000E+00 0. -1.
<mgrwt>
<rscale>  1 0.30000000E+03</rscale>
<asrwt>0</asrwt>
<pdfrwt beam="1">  1       21 0.71501010E-02 0.30000000E+03</pdfrwt>
<pdfrwt beam="2">0</pdfrwt>
<totfact> 0.15549874E+04</totfact>
</mgrwt>
</event>
<event>
 6    1  0.1273846E-001  0.3000000E+03  0.7818608E-02  0.1093470E+00
         21   -1    0    0  501  502  0.00000000000E+00  0.00000000000E+00  0.12046485964E+01  0.12046485964E+01  0.00000000000E+00 0. -1.
         13   -1    0    0    0    0 -0.00000000000E+00 -0.00000000000E+00 -0.10000000000E+04  0.10000000000E+04  0.00000000000E+00 0.  1.
    9000005    2    1    2  501    0  0.63683248595E+01  0.31328560650E+02 -0.69125976005E+03  0.69201187018E+03  0.42823282903E+01 0.  0.
         13    1    3    3    0    0 -0.34648107193E-02  0.46371955067E+01 -0.77059101970E+02  0.77198502515E+02  0.00000000000E+00 0.  1.
          3    1    3    3  501    0  0.63717896702E+01  0.26691365143E+02 -0.61420065808E+03  0.61481336767E+03  0.00000000000E+00 0.  1.
         -3    1    1    2    0  502 -0.63683248595E+01 -0.31328560650E+02 -0.30753559135E+03  0.30919277841E+03  0.00000000000E+00 0. -1.
<mgrwt>
<rscale>  1 0.30000000E+03</rscale>
<asrwt>0</asrwt>
<pdfrwt beam="1">  1       21 0.43805496E-02 0.30000000E+03</pdfrwt>
<pdfrwt beam="2">0</pdfrwt>
<totfact> 0.36066018E+04</totfact>
</mgrwt>
</event>
<event>
 6    1  0.1273846E-001  0.3000000E+03  0.7818608E-02  0.1093470E+00
         21   -1    0    0  501  502  0.00000000000E+00  0.00000000000E+00  0.15750505282E+01  0.15750505282E+01  0.00000000000E+00 0. -1.
         13   -1    0    0    0    0 -0.00000000000E+00 -0.00000000000E+00 -0.10000000000E+04  0.10000000000E+04  0.00000000000E+00 0.  1.
    9000005    2    1    2  501    0  0.71067646694E+00  0.34519316976E+02 -0.74518147117E+03  0.74598876841E+03  0.34248080777E+01 0.  0.
         13    1    3    3    0    0 -0.38124327370E+00  0.29333599849E+02 -0.61437565199E+03  0.61507564346E+03  0.00000000000E+00 0.  1.
          3    1    3    3  501    0  0.10919197406E+01  0.51857171277E+01 -0.13080581919E+03  0.13091312495E+03  0.00000000000E+00 0.  1.
         -3    1    1    2    0  502 -0.71067646694E+00 -0.34519316976E+02 -0.25324347830E+03  0.25558628212E+03  0.00000000000E+00 0. -1.
<mgrwt>
<rscale>  1 0.30000000E+03</rscale>
<asrwt>0</asrwt>
<pdfrwt beam="1">  1       21 0.57274685E-02 0.30000000E+03</pdfrwt>
<pdfrwt beam="2">0</pdfrwt>
<totfact> 0.22828723E+04</totfact>
</mgrwt>
</event>
<event>
 6    1  0.1273846E-001  0.3000000E+03  0.7818608E-02  0.1093470E+00
         21   -1    0    0  501  502  0.00000000000E+00  0.00000000000E+00  0.14769654898E+01  0.14769654898E+01  0.00000000000E+00 0. -1.
         13   -1    0    0    0    0 -0.00000000000E+00 -0.00000000000E+00 -0.10000000000E+04  0.10000000000E+04  0.00000000000E+00 0.  1.
    9000005    2    1    2  501    0 -0.33607987438E+02 -0.74122975261E+01 -0.72123298043E+03  0.72205933351E+03  0.28688084824E+01 0.  0.
         13    1    3    3    0    0 -0.25347609864E+02 -0.62746601487E+01 -0.52418914327E+03  0.52483914737E+03  0.00000000000E+00 0.  1.
          1    1    3    3  501    0 -0.82603775733E+01 -0.11376373773E+01 -0.19704383716E+03  0.19722018614E+03  0.00000000000E+00 0.  1.
         -3    1    1    2    0  502  0.33607987438E+02  0.74122975261E+01 -0.27729005408E+03  0.27941763198E+03  0.00000000000E+00 0. -1.
<mgrwt>
<rscale>  1 0.30000000E+03</rscale>
<asrwt>0</asrwt>
<pdfrwt beam="1">  1       21 0.53707949E-02 0.30000000E+03</pdfrwt>
<pdfrwt beam="2">0</pdfrwt>
<totfact> 0.25491481E+04</totfact>
</mgrwt>
</event>
<event>
 6    1  0.1273846E-001  0.3000000E+03  0.7818608E-02  0.1093470E+00
         21   -1    0    0  501  502  0.00000000000E+00  0.00000000000E+00  0.12150910370E+01  0.12150910370E+01  0.00000000000E+00 0. -1.
         13   -1    0    0    0    0 -0.00000000000E+00 -0.00000000000E+00 -0.10000000000E+04  0.10000000000E+04  0.00000000000E+00 0.  1.
    9000005    2    1    2  501    0  0.10203036200E+02  0.32265555350E+02 -0.61576988605E+03  0.61670803546E+03  0.33287276668E+01 0.  0.
         13    1    3    3    0    0  0.15733448258E+01  0.99914829335E+01 -0.18600083405E+03  0.18627564364E+03  0.00000000000E+00 0.  1.
          3    1    3    3  501    0  0.86296913744E+01  0.22274072416E+02 -0.42976905199E+03  0.43043239182E+03  0.00000000000E+00 0.  1.
         -1    1    1    2    0  502 -0.10203036200E+02 -0.32265555350E+02 -0.38301502291E+03  0.38450705558E+03  0.00000000000E+00 0. -1.
<mgrwt>
<rscale>  1 0.30000000E+03</rscale>
<asrwt>0</asrwt>
<pdfrwt beam="1">  1       21 0.44185222E-02 0.30000000E+03</pdfrwt>
<pdfrwt beam="2">0</pdfrwt>
<totfact> 0.35542544E+04</totfact>
</mgrwt>
</event>
<event>
 6    1  0.1273846E-001  0.3000000E+03  0.7818608E-02  0.1093470E+00
         21   -1    0    0  501  502  0.00000000000E+00  0.00000000000E+00  0.34224665612E+01  0.34224665612E+01  0.00000000000E+00 0. -1.
         13   -1    0    0    0    0 -0.00000000000E+00 -0.00000000000E+00 -0.10000000000E+04  0.10000000000E+04  0.00000000000E+00 0.  1.
    9000005    2    1    2  501    0  0.54806760050E+02  0.58565798967E+01 -0.66482449330E+03  0.66712176761E+03  0.46653455568E+01 0.  0.
         13    1    3    3    0    0  0.46727776210E+02  0.40733316862E+01 -0.58080497458E+03  0.58269588603E+03  0.00000000000E+00 0.  1.
          3    1    3    3  501    0  0.80789838402E+01  0.17832482105E+01 -0.84019518725E+02  0.84425881582E+02  0.00000000000E+00 0.  1.
         -3    1    1    2    0  502 -0.54806760050E+02 -0.58565798967E+01 -0.33175304014E+03  0.33630069895E+03  0.00000000000E+00 0. -1.
<mgrwt>
<rscale>  1 0.30000000E+03</rscale>
<asrwt>0</asrwt>
<pdfrwt beam="1">  1       21 0.12445359E-01 0.30000000E+03</pdfrwt>
<pdfrwt beam="2">0</pdfrwt>
<totfact> 0.57997813E+03</totfact>
</mgrwt>
</event>
<event>
 6    1  0.1273846E-001  0.3000000E+03  0.7818608E-02  0.1093470E+00
         21   -1    0    0  501  502  0.00000000000E+00  0.00000000000E+00  0.17525046572E+01  0.17525046572E+01  0.00000000000E+00 0. -1.
         13   -1    0    0    0    0 -0.00000000000E+00 -0.00000000000E+00 -0.10000000000E+04  0.10000000000E+04  0.00000000000E+00 0.  1.
    9000005    2    1    2  501    0  0.33875005871E+02  0.61185117673E+01 -0.78382416879E+03  0.78458364138E+03  0.24920926646E+01 0.  0.
         13    1    3    3    0    0  0.15725241088E+02  0.40717656669E+01 -0.36258983240E+03  0.36295350810E+03  0.00000000000E+00 0.  1.
          3    1    3    3  501    0  0.18149764784E+02  0.20467461004E+01 -0.42123433639E+03  0.42163013327E+03  0.00000000000E+00 0.  1.
         -3    1    1    2    0  502 -0.33875005871E+02 -0.61185117673E+01 -0.21442332655E+03  0.21716886328E+03  0.00000000000E+00 0. -1.
<mgrwt>
<rscale>  1 0.30000000E+03</rscale>
<asrwt>0</asrwt>
<pdfrwt beam="1">  1       21 0.63727576E-02 0.30000000E+03</pdfrwt>
<pdfrwt beam="2">0</pdfrwt>
<totfact> 0.18988664E+04</totfact>
</mgrwt>
</event>
<event>
 6    1  0.1273846E-001  0.3000000E+03  0.7818608E-02  0.1093470E+00
         21   -1    0    0  501  502  0.00000000000E+00  0.00000000000E+00  0.55750218983E+01  0.55750218983E+01  0.00000000000E+00 0. -1.
         13   -1    0    0    0    0 -0.00000000000E+00 -0.00000000000E+00 -0.10000000000E+04  0.10000000000E+04  0.00000000000E+00 0.  1.
    9000005    2    1    2  501    0 -0.18866066271E+02 -0.49551343738E+02 -0.85078090865E+03  0.85245780271E+03  0.66997580415E+01 0.  0.
         13    1    3    3    0    0 -0.12157832106E+02 -0.30797400143E+02 -0.58096201700E+03  0.58190476707E+03  0.00000000000E+00 0.  1.
          1    1    3    3  501    0 -0.67082341653E+01 -0.18753943596E+02 -0.26981889165E+03  0.27055303564E+03  0.00000000000E+00 0.  1.
         -1    1    1    2    0  502  0.18866066271E+02  0.49551343738E+02 -0.14364406945E+03  0.15311721919E+03  0.00000000000E+00 0. -1.
<mgrwt>
<rscale>  1 0.30000000E+03</rscale>
<asrwt>0</asrwt>
<pdfrwt beam="1">  1       21 0.20272850E-01 0.30000000E+03</pdfrwt>
<pdfrwt beam="2">0</pdfrwt>
<totfact> 0.23379156E+03</totfact>
</mgrwt>
</event>
<event>
 6    1  0.1273846E-001  0.3000000E+03  0.7818608E-02  0.1093470E+00
         21   -1    0    0  501  502  0.00000000000E+00  0.00000000000E+00  0.12774493136E+01  0.12774493136E+01  0.00000000000E+00 0. -1.
         13   -1    0    0    0    0 -0.00000000000E+00 -0.00000000000E+00 -0.10000000000E+04  0.10000000000E+04  0.00000000000E+00 0.  1.
    9000005    2    1    2  501    0 -0.15503911907E+02 -0.30469773557E+02 -0.63833901747E+03  0.63927597224E+03  0.53187481957E+01 0.  0.
         13    1    3    3    0    0 -0.10462598105E+02 -0.24566184990E+02 -0.46966685629E+03  0.47042525368E+03  0.00000000000E+00 0.  1.
          3    1    3    3  501    0 -0.50413138028E+01 -0.59035885672E+01 -0.16867216118E+03  0.16885071856E+03  0.00000000000E+00 0.  1.
         -1    1    1    2    0  502  0.15503911907E+02  0.30469773557E+02 -0.36038353322E+03  0.36200147707E+03  0.00000000000E+00 0. -1.
<mgrwt>
<rscale>  1 0.30000000E+03</rscale>
<asrwt>0</asrwt>
<pdfrwt beam="1">  1       21 0.46452800E-02 0.30000000E+03</pdfrwt>
<pdfrwt beam="2">0</pdfrwt>
<totfact> 0.32647825E+04</totfact>
</mgrwt>
</event>
<event>
 6    1  0.1273846E-001  0.3000000E+03  0.7818608E-02  0.1093470E+00
         21   -1    0    0  501  502  0.00000000000E+00  0.00000000000E+00  0.28158321342E+01  0.28158321342E+01  0.00000000000E+00 0. -1.
         13   -1    0    0    0    0 -0.00000000000E+00 -0.00000000000E+00 -0.10000000000E+04  0.10000000000E+04  0.00000000000E+00 0.  1.
    9000005    2    1    2  501    0  0.21633409607E+02 -0.26001760547E+02 -0.88417215707E+03  0.88485053831E+03  0.74817008874E+01 0.  0.
         13    1    3    3    0    0  0.10667626814E+02 -0.17552722918E+02 -0.47395813368E+03  0.47440300254E+03  0.00000000000E+00 0.  1.
          3    1    3    3  501    0  0.10965782793E+02 -0.84490376287E+01 -0.41021402340E+03  0.41044753577E+03  0.00000000000E+00 0.  1.
         -3    1    1    2    0  502 -0.21633409607E+02  0.26001760547E+02 -0.11301201079E+03  0.11796529382E+03  0.00000000000E+00 0. -1.
<mgrwt>
<rscale>  1 0.30000000E+03</rscale>
<asrwt>0</asrwt>
<pdfrwt beam="1">  1       21 0.10239411E-01 0.30000000E+03</pdfrwt>
<pdfrwt beam="2">0</pdfrwt>
<totfact> 0.82468264E+03</totfact>
</mgrwt>
</event>
<event>
 6    1  0.1273846E-001  0.3000000E+03  0.7818608E-02  0.1093470E+00
         21   -1    0    0  501  502  0.00000000000E+00  0.00000000000E+00  0.13010690200E+01  0.13010690200E+01  0.00000000000E+00 0. -1.
         13   -1    0    0    0    0 -0.00000000000E+00 -0.00000000000E+00 -0.10000000000E+04  0.10000000000E+04  0.00000000000E+00 0.  1.
    9000005    2    1    2  501    0 -0.31330138146E+02  0.18078923100E+00 -0.74625926605E+03  0.74692458687E+03  0.34403582125E+01 0.  0.
         13    1    3    3    0    0 -0.10462005578E+00 -0.15536352710E+00 -0.16132690843E+01  0.16241060064E+01  0.00000000000E+00 0.  1.
          1    1    3    3  501    0 -0.31225518090E+02  0.33615275810E+00 -0.74464599697E+03  0.74530048086E+03  0.00000000000E+00 0.  1.
         -1    1    1    2    0  502  0.31330138146E+02 -0.18078923100E+00 -0.25243966493E+03  0.25437648215E+03  0.00000000000E+00 0. -1.
<mgrwt>
<rscale>  1 0.30000000E+03</rscale>
<asrwt>0</asrwt>
<pdfrwt beam="1">  1       21 0.47311700E-02 0.30000000E+03</pdfrwt>
<pdfrwt beam="2">0</pdfrwt>
<totfact> 0.31646621E+04</totfact>
</mgrwt>
</event>
<event>
 6    1  0.1273846E-001  0.3000000E+03  0.7818608E-02  0.1093470E+00
         21   -1    0    0  501  502  0.00000000000E+00  0.00000000000E+00  0.22532884265E+01  0.22532884265E+01  0.00000000000E+00 0. -1.
         13   -1    0    0    0    0 -0.00000000000E+00 -0.00000000000E+00 -0.10000000000E+04  0.10000000000E+04  0.00000000000E+00 0.  1.
    9000005    2    1    2  501    0  0.12864612664E+02  0.31230031998E+02 -0.85036663398E+03  0.85105242722E+03  0.50998564641E+01 0.  0.
         13    1    3    3    0    0  0.52290141475E+01  0.19146982296E+02 -0.48097923121E+03  0.48138858563E+03  0.00000000000E+00 0.  1.
          3    1    3    3  501    0  0.76355985167E+01  0.12083049702E+02 -0.36938740277E+03  0.36966384159E+03  0.00000000000E+00 0.  1.
         -3    1    1    2    0  502 -0.12864612664E+02 -0.31230031998E+02 -0.14738007759E+03  0.15120086120E+03  0.00000000000E+00 0. -1.
<mgrwt>
<rscale>  1 0.30000000E+03</rscale>
<asrwt>0</asrwt>
<pdfrwt beam="1">  1       21 0.81937934E-02 0.30000000E+03</pdfrwt>
<pdfrwt beam="2">0</pdfrwt>
<totfact> 0.12247604E+04</totfact>
</mgrwt>
</event>
<event>
 6    1  0.1273846E-001  0.3000000E+03  0.7818608E-02  0.1093470E+00
         21   -1    0    0  501  502  0.00000000000E+00  0.00000000000E+00  0.17252372568E+01  0.17252372568E+01  0.00000000000E+00 0. -1.
         13   -1    0    0    0    0 -0.00000000000E+00 -0.00000000000E+00 -0.10000000000E+04  0.10000000000E+04  0.00000000000E+00 0.  1.
    9000005    2    1    2  501    0 -0.28284737126E+02 -0.26876244584E+02 -0.66606228325E+03  0.66722936224E+03  0.58049788879E+01 0.  0.
         13    1    3    3    0    0 -0.23884766687E+02 -0.22661351574E+02 -0.52110444304E+03  0.52214352384E+03  0.00000000000E+00 0.  1.
          3    1    3    3  501    0 -0.43999704393E+01 -0.42148930100E+01 -0.14495784021E+03  0.14508583839E+03  0.00000000000E+00 0.  1.
         -3    1    1    2    0  502  0.28284737126E+02  0.26876244584E+02 -0.33221247949E+03  0.33449587502E+03  0.00000000000E+00 0. -1.
<mgrwt>
<rscale>  1 0.30000000E+03</rscale>
<asrwt>0</asrwt>
<pdfrwt beam="1">  1       21 0.62736033E-02 0.30000000E+03</pdfrwt>
<pdfrwt beam="2">0</pdfrwt>
<totfact> 0.19510477E+04</totfact>
</mgrwt>
</event>
<event>
 6    1  0.1273846E-001  0.3000000E+03  0.7818608E-02  0.1093470E+00
         21   -1    0    0  501  502  0.00000000000E+00  0.00000000000E+00  0.98125452887E+00  0.98125452887E+00  0.00000000000E+00 0. -1.
         13   -1    0    0    0    0 -0.00000000000E+00 -0.00000000000E+00 -0.10000000000E+04  0.10000000000E+04  0.00000000000E+00 0.  1.
    9000005    2    1    2  501    0 -0.30632685443E+02  0.26932444461E+01 -0.40900770983E+03  0.41016940871E+03  0.24540083502E+01 0.  0.
         13    1    3    3    0    0 -0.15463206107E+02  0.21446040571E+01 -0.21993033057E+03  0.22048369639E+03  0.00000000000E+00 0.  1.
          3    1    3    3  501    0 -0.15169479336E+02  0.54864038894E+00 -0.18907737926E+03  0.18968571232E+03  0.00000000000E+00 0.  1.
         -1    1    1    2    0  502  0.30632685443E+02 -0.26932444461E+01 -0.59001103564E+03  0.59081184582E+03  0.00000000000E+00 0. -1.
<mgrwt>
<rscale>  1 0.30000000E+03</rscale>
<asrwt>0</asrwt>
<pdfrwt beam="1">  1       21 0.35682058E-02 0.30000000E+03</pdfrwt>
<pdfrwt beam="2">0</pdfrwt>
<totfact> 0.50942431E+04</totfact>
</mgrwt>
</event>
<event>
 6    1  0.1273846E-001  0.3000000E+03  0.7818608E-02  0.1093470E+00
         21   -1    0    0  501  502  0.00000000000E+00  0.00000000000E+00  0.15911052461E+01  0.15911052461E+01  0.00000000000E+00 0. -1.
         13   -1    0    0    0    0 -0.00000000000E+00 -0.00000000000E+00 -0.10000000000E+04  0.10000000000E+04  0.00000000000E+00 0.  1.
    9000005    2    1    2  501    0 -0.27442571885E+02 -0.17830871689E+02 -0.78480900622E+03  0.78549865485E+03  0.34533735322E+01 0.  0.
         13    1    3    3    0    0 -0.13595887353E+02 -0.10469097554E+02 -0.43496875470E+03  0.43530709588E+03  0.00000000000E+00 0.  1.
          1    1    3    3  501    0 -0.13846684533E+02 -0.73617741344E+01 -0.34984025153E+03  0.35019155898E+03  0.00000000000E+00 0.  1.
         -1    1    1    2    0  502  0.27442571885E+02  0.17830871689E+02 -0.21359988853E+03  0.21609245039E+03  0.00000000000E+00 0. -1.
<mgrwt>
<rscale>  1 0.30000000E+03</rscale>
<asrwt>0</asrwt>
<pdfrwt beam="1">  1       21 0.57858495E-02 0.30000000E+03</pdfrwt>
<pdfrwt beam="2">0</pdfrwt>
<totfact> 0.22433737E+04</totfact>
</mgrwt>
</event>
<event>
 6    1  0.1273846E-001  0.3000000E+03  0.7818608E-02  0.1093470E+00
         21   -1    0    0  501  502  0.00000000000E+00  0.00000000000E+00  0.58490150035E+01  0.58490150035E+01  0.00000000000E+00 0. -1.
         13   -1    0    0    0    0 -0.00000000000E+00 -0.00000000000E+00 -0.10000000000E+04  0.10000000000E+04  0.00000000000E+00 0.  1.
    9000005    2    1    2  501    0 -0.37177200475E+02 -0.37490758296E+02 -0.86080119815E+03  0.86242702630E+03  0.37378812966E+01 0.  0.
         13    1    3    3    0    0 -0.20985271400E+02 -0.23736208260E+02 -0.51962775727E+03  0.52059273460E+03  0.00000000000E+00 0.  1.
          3    1    3    3  501    0 -0.16191929075E+02 -0.13754550036E+02 -0.34117344088E+03  0.34183429169E+03  0.00000000000E+00 0.  1.
         -3    1    1    2    0  502  0.37177200475E+02  0.37490758296E+02 -0.13334978684E+03  0.14342198871E+03  0.00000000000E+00 0. -1.
<mgrwt>
<rscale>  1 0.30000000E+03</rscale>
<asrwt>0</asrwt>
<pdfrwt beam="1">  1       21 0.21269190E-01 0.30000000E+03</pdfrwt>
<pdfrwt beam="2">0</pdfrwt>
<totfact> 0.21326810E+03</totfact>
</mgrwt>
</event>
<event>
 6    1  0.1273846E-001  0.3000000E+03  0.7818608E-02  0.1093470E+00
         21   -1    0    0  501  502  0.00000000000E+00  0.00000000000E+00  0.41471597575E+01  0.41471597575E+01  0.00000000000E+00 0. -1.
         13   -1    0    0    0    0 -0.00000000000E+00 -0.00000000000E+00 -0.10000000000E+04  0.10000000000E+04  0.00000000000E+00 0.  1.
    9000005    2    1    2  501    0 -0.17251531490E+02 -0.58437950149E+02 -0.34340307059E+03  0.34885843616E+03  0.79956383020E+01 0.  0.
         13    1    3    3    0    0 -0.12003689146E+01 -0.11493898888E+02 -0.52695228935E+02  0.53947546280E+02  0.00000000000E+00 0.  1.
          1    1    3    3  501    0 -0.16051162576E+02 -0.46944051261E+02 -0.29070784165E+03  0.29491088988E+03  0.00000000000E+00 0.  1.
         -1    1    1    2    0  502  0.17251531490E+02  0.58437950149E+02 -0.65244976965E+03  0.65528872360E+03  0.00000000000E+00 0. -1.
<mgrwt>
<rscale>  1 0.30000000E+03</rscale>
<asrwt>0</asrwt>
<pdfrwt beam="1">  1       21 0.15080613E-01 0.30000000E+03</pdfrwt>
<pdfrwt beam="2">0</pdfrwt>
<totfact> 0.40773724E+03</totfact>
</mgrwt>
</event>
<event>
 6    1  0.1273846E-001  0.3000000E+03  0.7818608E-02  0.1093470E+00
         21   -1    0    0  501  502  0.00000000000E+00  0.00000000000E+00  0.10963148065E+01  0.10963148065E+01  0.00000000000E+00 0. -1.
         13   -1    0    0    0    0 -0.00000000000E+00 -0.00000000000E+00 -0.10000000000E+04  0.10000000000E+04  0.00000000000E+00 0.  1.
    9000005    2    1    2  501    0  0.32297942331E+02  0.54008805737E+01 -0.56546769812E+03  0.56642508102E+03  0.33657396291E+01 0.  0.
         13    1    3    3    0    0  0.93573725302E+01  0.15129966030E+01 -0.13864548666E+03  0.13896913525E+03  0.00000000000E+00 0.  1.
          3    1    3    3  501    0  0.22940569801E+02  0.38878839707E+01 -0.42682221146E+03  0.42745594578E+03  0.00000000000E+00 0.  1.
         -1    1    1    2    0  502 -0.32297942331E+02 -0.54008805737E+01 -0.43343598707E+03  0.43467123378E+03  0.00000000000E+00 0. -1.
<mgrwt>
<rscale>  1 0.30000000E+03</rscale>
<asrwt>0</asrwt>
<pdfrwt beam="1">  1       21 0.39866077E-02 0.30000000E+03</pdfrwt>
<pdfrwt beam="2">0</pdfrwt>
<totfact> 0.42285447E+04</totfact>
</mgrwt>
</event>
<event>
 6    1  0.1273846E-001  0.3000000E+03  0.7818608E-02  0.1093470E+00
         21   -1    0    0  501  502  0.00000000000E+00  0.00000000000E+00  0.30034585260E+01  0.30034585260E+01  0.00000000000E+00 0. -1.
         13   -1    0    0    0    0 -0.00000000000E+00 -0.00000000000E+00 -0.10000000000E+04  0.10000000000E+04  0.00000000000E+00 0.  1.
    9000005    2    1    2  501    0 -0.32954925081E+02  0.17977837906E+02 -0.86187539528E+03  0.86276454135E+03  0.11145719957E+02 0.  0.
         13    1    3    3    0    0 -0.32552395844E+02  0.16599532066E+02 -0.75894842970E+03  0.75982756062E+03  0.00000000000E+00 0.  1.
          3    1    3    3  501    0 -0.40252923698E+00  0.13783058398E+01 -0.10292696558E+03  0.10293698072E+03  0.00000000000E+00 0.  1.
         -1    1    1    2    0  502  0.32954925081E+02 -0.17977837906E+02 -0.13512114620E+03  0.14023891718E+03  0.00000000000E+00 0. -1.
<mgrwt>
<rscale>  1 0.30000000E+03</rscale>
<asrwt>0</asrwt>
<pdfrwt beam="1">  1       21 0.10921690E-01 0.30000000E+03</pdfrwt>
<pdfrwt beam="2">0</pdfrwt>
<totfact> 0.73458128E+03</totfact>
</mgrwt>
</event>
<event>
 6    1  0.1273846E-001  0.3000000E+03  0.7818608E-02  0.1093470E+00
         21   -1    0    0  501  502  0.00000000000E+00  0.00000000000E+00  0.26025188773E+02  0.26025188773E+02  0.00000000000E+00 0. -1.
         13   -1    0    0    0    0 -0.00000000000E+00 -0.00000000000E+00 -0.10000000000E+04  0.10000000000E+04  0.00000000000E+00 0.  1.
    9000005    2    1    2  501    0  0.46968724884E+02 -0.92900921805E+02 -0.87886364686E+03  0.88501889113E+03  0.45260891011E+01 0.  0.
         13    1    3    3    0    0  0.27835013158E+02 -0.57538928353E+02 -0.52324278023E+03  0.52713235842E+03  0.00000000000E+00 0.  1.
          1    1    3    3  501    0  0.19133711726E+02 -0.35361993452E+02 -0.35562086664E+03  0.35788653271E+03  0.00000000000E+00 0.  1.
         -3    1    1    2    0  502 -0.46968724884E+02  0.92900921805E+02 -0.95111164362E+02  0.14100629765E+03  0.00000000000E+00 0. -1.
<mgrwt>
<rscale>  1 0.30000000E+03</rscale>
<asrwt>0</asrwt>
<pdfrwt beam="1">  1       21 0.94637250E-01 0.30000000E+03</pdfrwt>
<pdfrwt beam="2">0</pdfrwt>
<totfact> 0.84785566E+01</totfact>
</mgrwt>
</event>
<event>
 6    1  0.1273846E-001  0.3000000E+03  0.7818608E-02  0.1093470E+00
         21   -1    0    0  501  502  0.00000000000E+00  0.00000000000E+00  0.73218280578E+01  0.73218280578E+01  0.00000000000E+00 0. -1.
         13   -1    0    0    0    0 -0.00000000000E+00 -0.00000000000E+00 -0.10000000000E+04  0.10000000000E+04  0.00000000000E+00 0.  1.
    9000005    2    1    2  501    0 -0.63349710716E+02  0.55519344568E+02 -0.58175873809E+03  0.58785744985E+03  0.61293171791E+01 0.  0.
         13    1    3    3    0    0 -0.19813570385E+02  0.14449403491E+02 -0.15739921279E+03  0.15929806973E+03  0.00000000000E+00 0.  1.
          1    1    3    3  501    0 -0.43536140332E+02  0.41069941077E+02 -0.42435952530E+03  0.42855938012E+03  0.00000000000E+00 0.  1.
         -1    1    1    2    0  502  0.63349710716E+02 -0.55519344568E+02 -0.41091943385E+03  0.41946437821E+03  0.00000000000E+00 0. -1.
<mgrwt>
<rscale>  1 0.30000000E+03</rscale>
<asrwt>0</asrwt>
<pdfrwt beam="1">  1       21 0.26624885E-01 0.30000000E+03</pdfrwt>
<pdfrwt beam="2">0</pdfrwt>
<totfact> 0.13780073E+03</totfact>
</mgrwt>
</event>
<event>
 6    1  0.1273846E-001  0.3000000E+03  0.7818608E-02  0.1093470E+00
         21   -1    0    0  501  502  0.00000000000E+00  0.00000000000E+00  0.11643276585E+01  0.11643276585E+01  0.00000000000E+00 0. -1.
         13   -1    0    0    0    0 -0.00000000000E+00 -0.00000000000E+00 -0.10000000000E+04  0.10000000000E+04  0.00000000000E+00 0.  1.
    9000005    2    1    2  501    0 -0.23331177018E+02  0.19698398780E+02 -0.29784569251E+03  0.29950962443E+03  0.78477923727E+01 0.  0.
         13    1    3    3    0    0 -0.89708708721E-01  0.27655083677E+01 -0.27607126498E+02  0.27745441386E+02  0.00000000000E+00 0.  1.
          1    1    3    3  501    0 -0.23241468309E+02  0.16932890412E+02 -0.27023856601E+03  0.27176418305E+03  0.00000000000E+00 0.  1.
         -3    1    1    2    0  502  0.23331177018E+02 -0.19698398780E+02 -0.70098997983E+03  0.70165470323E+03  0.00000000000E+00 0. -1.
<mgrwt>
<rscale>  1 0.30000000E+03</rscale>
<asrwt>0</asrwt>
<pdfrwt beam="1">  1       21 0.42339277E-02 0.30000000E+03</pdfrwt>
<pdfrwt beam="2">0</pdfrwt>
<totfact> 0.38203746E+04</totfact>
</mgrwt>
</event>
<event>
 6    1  0.1273846E-001  0.3000000E+03  0.7818608E-02  0.1093470E+00
         21   -1    0    0  501  502  0.00000000000E+00  0.00000000000E+00  0.10418134096E+01  0.10418134096E+01  0.00000000000E+00 0. -1.
         13   -1    0    0    0    0 -0.00000000000E+00 -0.00000000000E+00 -0.10000000000E+04  0.10000000000E+04  0.00000000000E+00 0.  1.
    9000005    2    1    2  501    0  0.90247638656E+01  0.30641806662E+02 -0.43945818703E+03  0.44063069986E+03  0.33983578138E+01 0.  0.
         13    1    3    3    0    0  0.13394665162E+01  0.96034474585E+01 -0.12434390762E+03  0.12472140047E+03  0.00000000000E+00 0.  1.
          3    1    3    3  501    0  0.76852973493E+01  0.21038359203E+02 -0.31511427941E+03  0.31590929939E+03  0.00000000000E+00 0.  1.
         -3    1    1    2    0  502 -0.90247638656E+01 -0.30641806662E+02 -0.55949999956E+03  0.56041111355E+03  0.00000000000E+00 0. -1.
<mgrwt>
<rscale>  1 0.30000000E+03</rscale>
<asrwt>0</asrwt>
<pdfrwt beam="1">  1       21 0.37884204E-02 0.30000000E+03</pdfrwt>
<pdfrwt beam="2">0</pdfrwt>
<totfact> 0.46071702E+04</totfact>
</mgrwt>
</event>
<event>
 6    1  0.1273846E-001  0.3000000E+03  0.7818608E-02  0.1093470E+00
         21   -1    0    0  501  502  0.00000000000E+00  0.00000000000E+00  0.30328066448E+01  0.30328066448E+01  0.00000000000E+00 0. -1.
         13   -1    0    0    0    0 -0.00000000000E+00 -0.00000000000E+00 -0.10000000000E+04  0.10000000000E+04  0.00000000000E+00 0.  1.
    9000005    2    1    2  501    0 -0.41704172010E+02  0.14991272918E+02 -0.79587669638E+03  0.79711689128E+03  0.34126670671E+01 0.  0.
         13    1    3    3    0    0 -0.16074405149E+02  0.55303403634E+01 -0.27633332282E+03  0.27685569610E+03  0.00000000000E+00 0.  1.
          3    1    3    3  501    0 -0.25629766861E+02  0.94609325543E+01 -0.51954337357E+03  0.52026119518E+03  0.00000000000E+00 0.  1.
         -1    1    1    2    0  502  0.41704172010E+02 -0.14991272918E+02 -0.20109049697E+03  0.20591591536E+03  0.00000000000E+00 0. -1.
<mgrwt>
<rscale>  1 0.30000000E+03</rscale>
<asrwt>0</asrwt>
<pdfrwt beam="1">  1       21 0.11028411E-01 0.30000000E+03</pdfrwt>
<pdfrwt beam="2">0</pdfrwt>
<totfact> 0.72184415E+03</totfact>
</mgrwt>
</event>
<event>
 6    1  0.1273846E-001  0.3000000E+03  0.7818608E-02  0.1093470E+00
         21   -1    0    0  501  502  0.00000000000E+00  0.00000000000E+00  0.20757567539E+01  0.20757567539E+01  0.00000000000E+00 0. -1.
         13   -1    0    0    0    0 -0.00000000000E+00 -0.00000000000E+00 -0.10000000000E+04  0.10000000000E+04  0.00000000000E+00 0.  1.
    9000005    2    1    2  501    0  0.66481983498E+01  0.34592338368E+02 -0.81637742981E+03  0.81714313690E+03  0.31575107355E+01 0.  0.
         13    1    3    3    0    0  0.29255739428E+01  0.94841516326E+01 -0.20888966643E+03  0.20912532333E+03  0.00000000000E+00 0.  1.
          3    1    3    3  501    0  0.37226244071E+01  0.25108186735E+02 -0.60748776337E+03  0.60801781357E+03  0.00000000000E+00 0.  1.
         -1    1    1    2    0  502 -0.66481983498E+01 -0.34592338368E+02 -0.18154681344E+03  0.18493261985E+03  0.00000000000E+00 0. -1.
<mgrwt>
<rscale>  1 0.30000000E+03</rscale>
<asrwt>0</asrwt>
<pdfrwt beam="1">  1       21 0.75482223E-02 0.30000000E+03</pdfrwt>
<pdfrwt beam="2">0</pdfrwt>
<totfact> 0.14144822E+04</totfact>
</mgrwt>
</event>
<event>
 6    1  0.1273846E-001  0.3000000E+03  0.7818608E-02  0.1093470E+00
         21   -1    0    0  501  502  0.00000000000E+00  0.00000000000E+00  0.31515727452E+01  0.31515727452E+01  0.00000000000E+00 0. -1.
         13   -1    0    0    0    0 -0.00000000000E+00 -0.00000000000E+00 -0.10000000000E+04  0.10000000000E+04  0.00000000000E+00 0.  1.
    9000005    2    1    2  501    0  0.50075436093E+02 -0.94036865556E+01 -0.70799040862E+03  0.70983445161E+03  0.43071307561E+01 0.  0.
         13    1    3    3    0    0  0.14352316149E+02 -0.34009791267E+01 -0.23115209749E+03  0.23162220924E+03  0.00000000000E+00 0.  1.
          3    1    3    3  501    0  0.35723119944E+02 -0.60027074290E+01 -0.47683831113E+03  0.47821224238E+03  0.00000000000E+00 0.  1.
         -1    1    1    2    0  502 -0.50075436093E+02  0.94036865556E+01 -0.28885801863E+03  0.29331712113E+03  0.00000000000E+00 0. -1.
<mgrwt>
<rscale>  1 0.30000000E+03</rscale>
<asrwt>0</asrwt>
<pdfrwt beam="1">  1       21 0.11460289E-01 0.30000000E+03</pdfrwt>
<pdfrwt beam="2">0</pdfrwt>
<totfact> 0.67355066E+03</totfact>
</mgrwt>
</event>
<event>
 6    1  0.1273846E-001  0.3000000E+03  0.7818608E-02  0.1093470E+00
         21   -1    0    0  501  502  0.00000000000E+00  0.00000000000E+00  0.19404352599E+01  0.19404352599E+01  0.00000000000E+00 0. -1.
         13   -1    0    0    0    0 -0.00000000000E+00 -0.00000000000E+00 -0.10000000000E+04  0.10000000000E+04  0.00000000000E+00 0.  1.
    9000005    2    1    2  501    0 -0.34439018899E+02 -0.15618571528E+02 -0.75535753058E+03  0.75631009677E+03  0.31587464436E+01 0.  0.
         13    1    3    3    0    0 -0.26021471062E+01 -0.11202492118E+01 -0.75490593326E+02  0.75543734410E+02  0.00000000000E+00 0.  1.
          3    1    3    3  501    0 -0.31836871793E+02 -0.14498322316E+02 -0.67986693725E+03  0.68076636236E+03  0.00000000000E+00 0.  1.
         -3    1    1    2    0  502  0.34439018899E+02  0.15618571528E+02 -0.24270203416E+03  0.24563033849E+03  0.00000000000E+00 0. -1.
<mgrwt>
<rscale>  1 0.30000000E+03</rscale>
<asrwt>0</asrwt>
<pdfrwt beam="1">  1       21 0.70561431E-02 0.30000000E+03</pdfrwt>
<pdfrwt beam="2">0</pdfrwt>
<totfact> 0.15912445E+04</totfact>
</mgrwt>
</event>
<event>
 6    1  0.1273846E-001  0.3000000E+03  0.7818608E-02  0.1093470E+00
         21   -1    0    0  501  502  0.00000000000E+00  0.00000000000E+00  0.12268941166E+01  0.12268941166E+01  0.00000000000E+00 0. -1.
         13   -1    0    0    0    0 -0.00000000000E+00 -0.00000000000E+00 -0.10000000000E+04  0.10000000000E+04  0.00000000000E+00 0.  1.
    9000005    2    1    2  501    0  0.21045411090E+02  0.26542163941E+02 -0.62363572265E+03  0.62456331465E+03  0.32285680102E+01 0.  0.
         13    1    3    3    0    0  0.65075125110E+01  0.10507760524E+02 -0.21567203595E+03  0.21602589622E+03  0.00000000000E+00 0.  1.
          3    1    3    3  501    0  0.14537898579E+02  0.16034403417E+02 -0.40796368670E+03  0.40853741843E+03  0.00000000000E+00 0.  1.
         -3    1    1    2    0  502 -0.21045411090E+02 -0.26542163941E+02 -0.37513738324E+03  0.37666357947E+03  0.00000000000E+00 0. -1.
<mgrwt>
<rscale>  1 0.30000000E+03</rscale>
<asrwt>0</asrwt>
<pdfrwt beam="1">  1       21 0.44614426E-02 0.30000000E+03</pdfrwt>
<pdfrwt beam="2">0</pdfrwt>
<totfact> 0.34964873E+04</totfact>
</mgrwt>
</event>
<event>
 6    1  0.1273846E-001  0.3000000E+03  0.7818608E-02  0.1093470E+00
         21   -1    0    0  501  502  0.00000000000E+00  0.00000000000E+00  0.49097341984E+01  0.49097341984E+01  0.00000000000E+00 0. -1.
         13   -1    0    0    0    0 -0.00000000000E+00 -0.00000000000E+00 -0.10000000000E+04  0.10000000000E+04  0.00000000000E+00 0.  1.
    9000005    2    1    2  501    0 -0.30029643360E+02  0.31242807333E+02 -0.89233140751E+03  0.89338720084E+03  0.27308050347E+01 0.  0.
         13    1    3    3    0    0 -0.23952794713E+01  0.28728987410E+01 -0.93158932082E+02  0.93233993466E+02  0.00000000000E+00 0.  1.
          3    1    3    3  501    0 -0.27634363889E+02  0.28369908592E+02 -0.79917247543E+03  0.80015320737E+03  0.00000000000E+00 0.  1.
         -1    1    1    2    0  502  0.30029643360E+02 -0.31242807333E+02 -0.10275885829E+03  0.11152253336E+03  0.00000000000E+00 0. -1.
<mgrwt>
<rscale>  1 0.30000000E+03</rscale>
<asrwt>0</asrwt>
<pdfrwt beam="1">  1       21 0.17853617E-01 0.30000000E+03</pdfrwt>
<pdfrwt beam="2">0</pdfrwt>
<totfact> 0.29749351E+03</totfact>
</mgrwt>
</event>
<event>
 6    1  0.1273846E-001  0.3000000E+03  0.7818608E-02  0.1093470E+00
         21   -1    0    0  501  502  0.00000000000E+00  0.00000000000E+00  0.15839109026E+01  0.15839109026E+01  0.00000000000E+00 0. -1.
         13   -1    0    0    0    0 -0.00000000000E+00 -0.00000000000E+00 -0.10000000000E+04  0.10000000000E+04  0.00000000000E+00 0.  1.
    9000005    2    1    2  501    0 -0.23048246265E+02 -0.24131007166E+02 -0.22877089340E+03  0.23121565193E+03  0.33209743351E+01 0.  0.
         13    1    3    3    0    0 -0.31069469097E+01 -0.40142627109E+01 -0.27992635076E+02  0.28449165941E+02  0.00000000000E+00 0.  1.
          3    1    3    3  501    0 -0.19941299356E+02 -0.20116744455E+02 -0.20077825832E+03  0.20276648599E+03  0.00000000000E+00 0.  1.
         -3    1    1    2    0  502  0.23048246265E+02  0.24131007166E+02 -0.76964519570E+03  0.77036825897E+03  0.00000000000E+00 0. -1.
<mgrwt>
<rscale>  1 0.30000000E+03</rscale>
<asrwt>0</asrwt>
<pdfrwt beam="1">  1       21 0.57596882E-02 0.30000000E+03</pdfrwt>
<pdfrwt beam="2">0</pdfrwt>
<totfact> 0.22609433E+04</totfact>
</mgrwt>
</event>
<event>
 6    1  0.1273846E-001  0.3000000E+03  0.7818608E-02  0.1093470E+00
         21   -1    0    0  501  502  0.00000000000E+00  0.00000000000E+00  0.38024874824E+01  0.38024874824E+01  0.00000000000E+00 0. -1.
         13   -1    0    0    0    0 -0.00000000000E+00 -0.00000000000E+00 -0.10000000000E+04  0.10000000000E+04  0.00000000000E+00 0.  1.
    9000005    2    1    2  501    0 -0.29029415247E+02  0.38021287448E+02 -0.81436078929E+03  0.81577876780E+03  0.48143133227E+01 0.  0.
         13    1    3    3    0    0 -0.13673827971E+02  0.16484856037E+02 -0.32686813704E+03  0.32756908136E+03  0.00000000000E+00 0.  1.
          3    1    3    3  501    0 -0.15355587276E+02  0.21536431411E+02 -0.48749265225E+03  0.48820968644E+03  0.00000000000E+00 0.  1.
         -3    1    1    2    0  502  0.29029415247E+02 -0.38021287448E+02 -0.18183672323E+03  0.18802371968E+03  0.00000000000E+00 0. -1.
<mgrwt>
<rscale>  1 0.30000000E+03</rscale>
<asrwt>0</asrwt>
<pdfrwt beam="1">  1       21 0.13827256E-01 0.30000000E+03</pdfrwt>
<pdfrwt beam="2">0</pdfrwt>
<totfact> 0.47845230E+03</totfact>
</mgrwt>
</event>
<event>
 6    1  0.1273846E-001  0.3000000E+03  0.7818608E-02  0.1093470E+00
         21   -1    0    0  501  502  0.00000000000E+00  0.00000000000E+00  0.15931322109E+01  0.15931322109E+01  0.00000000000E+00 0. -1.
         13   -1    0    0    0    0 -0.00000000000E+00 -0.00000000000E+00 -0.10000000000E+04  0.10000000000E+04  0.00000000000E+00 0.  1.
    9000005    2    1    2  501    0  0.39541585889E+02 -0.43744961524E+01 -0.52680721767E+03  0.52831847282E+03  0.34483184405E+01 0.  0.
         13    1    3    3    0    0  0.21855008299E+02 -0.79153694503E+00 -0.29624241873E+03  0.29704854582E+03  0.00000000000E+00 0.  1.
          3    1    3    3  501    0  0.17686577590E+02 -0.35829592074E+01 -0.23056479894E+03  0.23126992700E+03  0.00000000000E+00 0.  1.
         -3    1    1    2    0  502 -0.39541585889E+02  0.43744961524E+01 -0.47159965012E+03  0.47327465939E+03  0.00000000000E+00 0. -1.
<mgrwt>
<rscale>  1 0.30000000E+03</rscale>
<asrwt>0</asrwt>
<pdfrwt beam="1">  1       21 0.57932203E-02 0.30000000E+03</pdfrwt>
<pdfrwt beam="2">0</pdfrwt>
<totfact> 0.22384613E+04</totfact>
</mgrwt>
</event>
<event>
 6    1  0.1273846E-001  0.3000000E+03  0.7818608E-02  0.1093470E+00
         21   -1    0    0  501  502  0.00000000000E+00  0.00000000000E+00  0.27361599160E+01  0.27361599160E+01  0.00000000000E+00 0. -1.
         13   -1    0    0    0    0 -0.00000000000E+00 -0.00000000000E+00 -0.10000000000E+04  0.10000000000E+04  0.00000000000E+00 0.  1.
    9000005    2    1    2  501    0 -0.41986007280E+02 -0.28299163026E+02 -0.37462325216E+03  0.37804025856E+03  0.28615731898E+01 0.  0.
         13    1    3    3    0    0 -0.30011073636E+02 -0.21154100440E+02 -0.26372115289E+03  0.26626491881E+03  0.00000000000E+00 0.  1.
          1    1    3    3  501    0 -0.11974933644E+02 -0.71450625865E+01 -0.11090209927E+03  0.11177533975E+03  0.00000000000E+00 0.  1.
         -1    1    1    2    0  502  0.41986007280E+02  0.28299163026E+02 -0.62264058792E+03  0.62469590135E+03  0.00000000000E+00 0. -1.
<mgrwt>
<rscale>  1 0.30000000E+03</rscale>
<asrwt>0</asrwt>
<pdfrwt beam="1">  1       21 0.99496934E-02 0.30000000E+03</pdfrwt>
<pdfrwt beam="2">0</pdfrwt>
<totfact> 0.86810654E+03</totfact>
</mgrwt>
</event>
<event>
 6    1  0.1273846E-001  0.3000000E+03  0.7818608E-02  0.1093470E+00
         21   -1    0    0  501  502  0.00000000000E+00  0.00000000000E+00  0.10563504285E+01  0.10563504285E+01  0.00000000000E+00 0. -1.
         13   -1    0    0    0    0 -0.00000000000E+00 -0.00000000000E+00 -0.10000000000E+04  0.10000000000E+04  0.00000000000E+00 0.  1.
    9000005    2    1    2  501    0  0.31752921207E+02 -0.57285433794E+01 -0.55058981421E+03  0.55154302927E+03  0.30830847487E+01 0.  0.
         13    1    3    3    0    0  0.31758069527E+02 -0.56301835139E+01 -0.54576598574E+03  0.54671819536E+03  0.00000000000E+00 0.  1.
          1    1    3    3  501    0 -0.51483192331E-02 -0.98359865579E-01 -0.48238284769E+01  0.48248339187E+01  0.00000000000E+00 0.  1.
         -1    1    1    2    0  502 -0.31752921207E+02  0.57285433794E+01 -0.44835383536E+03  0.44951332115E+03  0.00000000000E+00 0. -1.
<mgrwt>
<rscale>  1 0.30000000E+03</rscale>
<asrwt>0</asrwt>
<pdfrwt beam="1">  1       21 0.38412824E-02 0.30000000E+03</pdfrwt>
<pdfrwt beam="2">0</pdfrwt>
<totfact> 0.45011289E+04</totfact>
</mgrwt>
</event>
<event>
 6    1  0.1273846E-001  0.3000000E+03  0.7818608E-02  0.1093470E+00
         21   -1    0    0  501  502  0.00000000000E+00  0.00000000000E+00  0.13448212753E+01  0.13448212753E+01  0.00000000000E+00 0. -1.
         13   -1    0    0    0    0 -0.00000000000E+00 -0.00000000000E+00 -0.10000000000E+04  0.10000000000E+04  0.00000000000E+00 0.  1.
    9000005    2    1    2  501    0  0.29004139994E+02  0.12718895835E+02 -0.75072760116E+03  0.75140263963E+03  0.33144008291E+01 0.  0.
         13    1    3    3    0    0  0.68615935282E+01  0.15257272906E+01 -0.16132376370E+03  0.16147682819E+03  0.00000000000E+00 0.  1.
          3    1    3    3  501    0  0.22142546466E+02  0.11193168544E+02 -0.58940383746E+03  0.58992581144E+03  0.00000000000E+00 0.  1.
         -1    1    1    2    0  502 -0.29004139994E+02 -0.12718895835E+02 -0.24792757756E+03  0.24994218164E+03  0.00000000000E+00 0. -1.
<mgrwt>
<rscale>  1 0.30000000E+03</rscale>
<asrwt>0</asrwt>
<pdfrwt beam="1">  1       21 0.48902695E-02 0.30000000E+03</pdfrwt>
<pdfrwt beam="2">0</pdfrwt>
<totfact> 0.29914571E+04</totfact>
</mgrwt>
</event>
<event>
 6    1  0.1273846E-001  0.3000000E+03  0.7818608E-02  0.1093470E+00
         21   -1    0    0  501  502  0.00000000000E+00  0.00000000000E+00  0.28559744316E+01  0.28559744316E+01  0.00000000000E+00 0. -1.
         13   -1    0    0    0    0 -0.00000000000E+00 -0.00000000000E+00 -0.10000000000E+04  0.10000000000E+04  0.00000000000E+00 0.  1.
    9000005    2    1    2  501    0  0.35153194538E+02  0.16075880869E+02 -0.84362308763E+03  0.84454343729E+03  0.77150793089E+01 0.  0.
         13    1    3    3    0    0  0.12598091423E+02  0.73415226399E+01 -0.24671349791E+03  0.24714400642E+03  0.00000000000E+00 0.  1.
          1    1    3    3  501    0  0.22555103115E+02  0.87343582289E+01 -0.59690958973E+03  0.59739943086E+03  0.00000000000E+00 0.  1.
         -3    1    1    2    0  502 -0.35153194538E+02 -0.16075880869E+02 -0.15352093794E+03  0.15831253714E+03  0.00000000000E+00 0. -1.
<mgrwt>
<rscale>  1 0.30000000E+03</rscale>
<asrwt>0</asrwt>
<pdfrwt beam="1">  1       21 0.10385383E-01 0.30000000E+03</pdfrwt>
<pdfrwt beam="2">0</pdfrwt>
<totfact> 0.80404578E+03</totfact>
</mgrwt>
</event>
<event>
 6    1  0.1273846E-001  0.3000000E+03  0.7818608E-02  0.1093470E+00
         21   -1    0    0  501  502  0.00000000000E+00  0.00000000000E+00  0.10192180853E+01  0.10192180853E+01  0.00000000000E+00 0. -1.
         13   -1    0    0    0    0 -0.00000000000E+00 -0.00000000000E+00 -0.10000000000E+04  0.10000000000E+04  0.00000000000E+00 0.  1.
    9000005    2    1    2  501    0 -0.94475125902E+01 -0.28795534230E+02 -0.35016853404E+03  0.35149957152E+03  0.39380527309E+01 0.  0.
         13    1    3    3    0    0 -0.87830676476E+01 -0.27670735385E+02 -0.32385000172E+03  0.32514863600E+03  0.00000000000E+00 0.  1.
          3    1    3    3  501    0 -0.66444494259E+00 -0.11247988451E+01 -0.26318532314E+02  0.26350935518E+02  0.00000000000E+00 0.  1.
         -3    1    1    2    0  502  0.94475125902E+01  0.28795534230E+02 -0.64881224788E+03  0.64951964657E+03  0.00000000000E+00 0. -1.
<mgrwt>
<rscale>  1 0.30000000E+03</rscale>
<asrwt>0</asrwt>
<pdfrwt beam="1">  1       21 0.37062554E-02 0.30000000E+03</pdfrwt>
<pdfrwt beam="2">0</pdfrwt>
<totfact> 0.47799716E+04</totfact>
</mgrwt>
</event>
<event>
 6    1  0.1273846E-001  0.3000000E+03  0.7818608E-02  0.1093470E+00
         21   -1    0    0  501  502  0.00000000000E+00  0.00000000000E+00  0.14484146895E+01  0.14484146895E+01  0.00000000000E+00 0. -1.
         13   -1    0    0    0    0 -0.00000000000E+00 -0.00000000000E+00 -0.10000000000E+04  0.10000000000E+04  0.00000000000E+00 0.  1.
    9000005    2    1    2  501    0  0.34296553551E+02  0.16084373334E+02 -0.53676673865E+03  0.53811246178E+03  0.33954607231E+01 0.  0.
         13    1    3    3    0    0  0.44963949546E+01  0.34289474451E+01 -0.77856660254E+02  0.78061737068E+02  0.00000000000E+00 0.  1.
          3    1    3    3  501    0  0.29800158597E+02  0.12655425889E+02 -0.45891007840E+03  0.46005072471E+03  0.00000000000E+00 0.  1.
         -1    1    1    2    0  502 -0.34296553551E+02 -0.16084373334E+02 -0.46178484666E+03  0.46333595291E+03  0.00000000000E+00 0. -1.
<mgrwt>
<rscale>  1 0.30000000E+03</rscale>
<asrwt>0</asrwt>
<pdfrwt beam="1">  1       21 0.52669736E-02 0.30000000E+03</pdfrwt>
<pdfrwt beam="2">0</pdfrwt>
<totfact> 0.26357093E+04</totfact>
</mgrwt>
</event>
<event>
 6    1  0.1273846E-001  0.3000000E+03  0.7818608E-02  0.1093470E+00
         21   -1    0    0  501  502  0.00000000000E+00  0.00000000000E+00  0.19243141855E+01  0.19243141855E+01  0.00000000000E+00 0. -1.
         13   -1    0    0    0    0 -0.00000000000E+00 -0.00000000000E+00 -0.10000000000E+04  0.10000000000E+04  0.00000000000E+00 0.  1.
    9000005    2    1    2  501    0 -0.19648662942E+02 -0.23481629487E+02 -0.85754177327E+03  0.85809372823E+03  0.30816652151E+01 0.  0.
         13    1    3    3    0    0 -0.10903754817E+02 -0.14897201941E+02 -0.48950323213E+03  0.48985123534E+03  0.00000000000E+00 0.  1.
          1    1    3    3  501    0 -0.87449081244E+01 -0.85844275468E+01 -0.36803854113E+03  0.36824249289E+03  0.00000000000E+00 0.  1.
         -1    1    1    2    0  502  0.19648662942E+02  0.23481629487E+02 -0.14053391255E+03  0.14383058595E+03  0.00000000000E+00 0. -1.
<mgrwt>
<rscale>  1 0.30000000E+03</rscale>
<asrwt>0</asrwt>
<pdfrwt beam="1">  1       21 0.69975209E-02 0.30000000E+03</pdfrwt>
<pdfrwt beam="2">0</pdfrwt>
<totfact> 0.16145237E+04</totfact>
</mgrwt>
</event>
<event>
 6    1  0.1273846E-001  0.3000000E+03  0.7818608E-02  0.1093470E+00
         21   -1    0    0  501  502  0.00000000000E+00  0.00000000000E+00  0.12393659358E+01  0.12393659358E+01  0.00000000000E+00 0. -1.
         13   -1    0    0    0    0 -0.00000000000E+00 -0.00000000000E+00 -0.10000000000E+04  0.10000000000E+04  0.00000000000E+00 0.  1.
    9000005    2    1    2  501    0 -0.19074839850E+02  0.25270930261E+02 -0.71724957339E+03  0.71795338550E+03  0.27647398266E+01 0.  0.
         13    1    3    3    0    0 -0.95685331269E+01  0.10409458212E+02 -0.31576211789E+03  0.31607851673E+03  0.00000000000E+00 0.  1.
          3    1    3    3  501    0 -0.95063067228E+01  0.14861472048E+02 -0.40148745550E+03  0.40187486876E+03  0.00000000000E+00 0.  1.
         -1    1    1    2    0  502  0.19074839850E+02 -0.25270930261E+02 -0.28151106067E+03  0.28328598044E+03  0.00000000000E+00 0. -1.
<mgrwt>
<rscale>  1 0.30000000E+03</rscale>
<asrwt>0</asrwt>
<pdfrwt beam="1">  1       21 0.45067947E-02 0.30000000E+03</pdfrwt>
<pdfrwt beam="2">0</pdfrwt>
<totfact> 0.34370073E+04</totfact>
</mgrwt>
</event>
<event>
 6    1  0.1273846E-001  0.3000000E+03  0.7818608E-02  0.1093470E+00
         21   -1    0    0  501  502  0.00000000000E+00  0.00000000000E+00  0.15902107320E+01  0.15902107320E+01  0.00000000000E+00 0. -1.
         13   -1    0    0    0    0 -0.00000000000E+00 -0.00000000000E+00 -0.10000000000E+04  0.10000000000E+04  0.00000000000E+00 0.  1.
    9000005    2    1    2  501    0  0.21402486551E+02 -0.21149417799E+02 -0.82661739036E+03  0.82718266323E+03  0.54299167112E+01 0.  0.
         13    1    3    3    0    0  0.15444578319E+02 -0.11593811651E+02 -0.51702216868E+03  0.51738271557E+03  0.00000000000E+00 0.  1.
          1    1    3    3  501    0  0.59579082318E+01 -0.95556061484E+01 -0.30959522168E+03  0.30979994765E+03  0.00000000000E+00 0.  1.
         -1    1    1    2    0  502 -0.21402486551E+02  0.21149417799E+02 -0.17179239891E+03  0.17440754751E+03  0.00000000000E+00 0. -1.
<mgrwt>
<rscale>  1 0.30000000E+03</rscale>
<asrwt>0</asrwt>
<pdfrwt beam="1">  1       21 0.57825967E-02 0.30000000E+03</pdfrwt>
<pdfrwt beam="2">0</pdfrwt>
<totfact> 0.22455468E+04</totfact>
</mgrwt>
</event>
<event>
 6    1  0.1273846E-001  0.3000000E+03  0.7818608E-02  0.1093470E+00
         21   -1    0    0  501  502  0.00000000000E+00  0.00000000000E+00  0.29463788731E+01  0.29463788731E+01  0.00000000000E+00 0. -1.
         13   -1    0    0    0    0 -0.00000000000E+00 -0.00000000000E+00 -0.10000000000E+04  0.10000000000E+04  0.00000000000E+00 0.  1.
    9000005    2    1    2  501    0 -0.24965106439E+02  0.21124319368E+02 -0.89783626435E+03  0.89847831058E+03  0.91555219507E+01 0.  0.
         13    1    3    3    0    0 -0.24822353814E+02  0.17614675376E+02 -0.79783744496E+03  0.79841781958E+03  0.00000000000E+00 0.  1.
          1    1    3    3  501    0 -0.14275262480E+00  0.35096439924E+01 -0.99998819394E+02  0.10006049100E+03  0.00000000000E+00 0.  1.
         -3    1    1    2    0  502  0.24965106439E+02 -0.21124319368E+02 -0.99217356773E+02  0.10446806830E+03  0.00000000000E+00 0. -1.
<mgrwt>
<rscale>  1 0.30000000E+03</rscale>
<asrwt>0</asrwt>
<pdfrwt beam="1">  1       21 0.10714128E-01 0.30000000E+03</pdfrwt>
<pdfrwt beam="2">0</pdfrwt>
<totfact> 0.76034615E+03</totfact>
</mgrwt>
</event>
<event>
 6    1  0.1273846E-001  0.3000000E+03  0.7818608E-02  0.1093470E+00
         21   -1    0    0  501  502  0.00000000000E+00  0.00000000000E+00  0.10766956437E+01  0.10766956437E+01  0.00000000000E+00 0. -1.
         13   -1    0    0    0    0 -0.00000000000E+00 -0.00000000000E+00 -0.10000000000E+04  0.10000000000E+04  0.00000000000E+00 0.  1.
    9000005    2    1    2  501    0 -0.25165402869E+02  0.19767919421E+02 -0.39546724449E+03  0.39677272881E+03  0.31919781017E+01 0.  0.
         13    1    3    3    0    0 -0.12778561220E+02  0.95293072434E+01 -0.17787530393E+03  0.17858813810E+03  0.00000000000E+00 0.  1.
          3    1    3    3  501    0 -0.12386841648E+02  0.10238612178E+02 -0.21759194056E+03  0.21818459071E+03  0.00000000000E+00 0.  1.
         -1    1    1    2    0  502  0.25165402869E+02 -0.19767919421E+02 -0.60345605987E+03  0.60430396683E+03  0.00000000000E+00 0. -1.
<mgrwt>
<rscale>  1 0.30000000E+03</rscale>
<asrwt>0</asrwt>
<pdfrwt beam="1">  1       21 0.39152651E-02 0.30000000E+03</pdfrwt>
<pdfrwt beam="2">0</pdfrwt>
<totfact> 0.43590280E+04</totfact>
</mgrwt>
</event>
<event>
 6    1  0.1273846E-001  0.3000000E+03  0.7818608E-02  0.1093470E+00
         21   -1    0    0  501  502  0.00000000000E+00  0.00000000000E+00  0.26328497035E+01  0.26328497035E+01  0.00000000000E+00 0. -1.
         13   -1    0    0    0    0 -0.00000000000E+00 -0.00000000000E+00 -0.10000000000E+04  0.10000000000E+04  0.00000000000E+00 0.  1.
    9000005    2    1    2  501    0 -0.30602402317E+02 -0.19705983153E+02 -0.85185097241E+03  0.85263354695E+03  0.30088852420E+01 0.  0.
         13    1    3    3    0    0 -0.18765613572E+02 -0.10407261947E+02 -0.49000460830E+03  0.49047423531E+03  0.00000000000E+00 0.  1.
          1    1    3    3  501    0 -0.11836788745E+02 -0.92987212064E+01 -0.36184636411E+03  0.36215931164E+03  0.00000000000E+00 0.  1.
         -3    1    1    2    0  502  0.30602402317E+02  0.19705983153E+02 -0.14551617789E+03  0.14999930276E+03  0.00000000000E+00 0. -1.
<mgrwt>
<rscale>  1 0.30000000E+03</rscale>
<asrwt>0</asrwt>
<pdfrwt beam="1">  1       21 0.95740191E-02 0.30000000E+03</pdfrwt>
<pdfrwt beam="2">0</pdfrwt>
<totfact> 0.92982246E+03</totfact>
</mgrwt>
</event>
<event>
 6    1  0.1273846E-001  0.3000000E+03  0.7818608E-02  0.1093470E+00
         21   -1    0    0  501  502  0.00000000000E+00  0.00000000000E+00  0.30895273685E+01  0.30895273685E+01  0.00000000000E+00 0. -1.
         13   -1    0    0    0    0 -0.00000000000E+00 -0.00000000000E+00 -0.10000000000E+04  0.10000000000E+04  0.00000000000E+00 0.  1.
    9000005    2    1    2  501    0 -0.12915205058E+02 -0.53931662153E+02 -0.52541689340E+03  0.52834578390E+03  0.33058724074E+01 0.  0.
         13    1    3    3    0    0 -0.11078245430E+02 -0.47062450871E+02 -0.44699766604E+03  0.44960484345E+03  0.00000000000E+00 0.  1.
          1    1    3    3  501    0 -0.18369596285E+01 -0.68692112820E+01 -0.78419227353E+02  0.78740940450E+02  0.00000000000E+00 0.  1.
         -3    1    1    2    0  502  0.12915205058E+02  0.53931662153E+02 -0.47149357924E+03  0.47474374347E+03  0.00000000000E+00 0. -1.
<mgrwt>
<rscale>  1 0.30000000E+03</rscale>
<asrwt>0</asrwt>
<pdfrwt beam="1">  1       21 0.11234669E-01 0.30000000E+03</pdfrwt>
<pdfrwt beam="2">0</pdfrwt>
<totfact> 0.69815228E+03</totfact>
</mgrwt>
</event>
<event>
 6    1  0.1273846E-001  0.3000000E+03  0.7818608E-02  0.1093470E+00
         21   -1    0    0  501  502  0.00000000000E+00  0.00000000000E+00  0.10640739060E+01  0.10640739060E+01  0.00000000000E+00 0. -1.
         13   -1    0    0    0    0 -0.00000000000E+00 -0.00000000000E+00 -0.10000000000E+04  0.10000000000E+04  0.00000000000E+00 0.  1.
    9000005    2    1    2  501    0  0.15535342915E+02  0.27861976439E+02 -0.59895095686E+03  0.59980902755E+03  0.33142420203E+01 0.  0.
         13    1    3    3    0    0 -0.16853957523E+00  0.38105060840E+00 -0.89341529839E+01  0.89438635216E+01  0.00000000000E+00 0.  1.
          3    1    3    3  501    0  0.15703882490E+02  0.27480925831E+02 -0.59001680387E+03  0.59086516403E+03  0.00000000000E+00 0.  1.
         -1    1    1    2    0  502 -0.15535342915E+02 -0.27861976439E+02 -0.39998496924E+03  0.40125504636E+03  0.00000000000E+00 0. -1.
<mgrwt>
<rscale>  1 0.30000000E+03</rscale>
<asrwt>0</asrwt>
<pdfrwt beam="1">  1       21 0.38693678E-02 0.30000000E+03</pdfrwt>
<pdfrwt beam="2">0</pdfrwt>
<totfact> 0.44463401E+04</totfact>
</mgrwt>
</event>
<event>
 6    1  0.1273846E-001  0.3000000E+03  0.7818608E-02  0.1093470E+00
         21   -1    0    0  501  502  0.00000000000E+00  0.00000000000E+00  0.15133940405E+01  0.15133940405E+01  0.00000000000E+00 0. -1.
         13   -1    0    0    0    0 -0.00000000000E+00 -0.00000000000E+00 -0.10000000000E+04  0.10000000000E+04  0.00000000000E+00 0.  1.
    9000005    2    1    2  501    0 -0.34923706724E+02 -0.65072472421E+01 -0.29821067903E+03  0.30033696589E+03  0.32671752265E+01 0.  0.
         13    1    3    3    0    0 -0.31184856100E+02 -0.47789574337E+01 -0.26185339420E+03  0.26374710185E+03  0.00000000000E+00 0.  1.
          1    1    3    3  501    0 -0.37388506237E+01 -0.17282898084E+01 -0.36357284838E+02  0.36589864039E+02  0.00000000000E+00 0.  1.
         -1    1    1    2    0  502  0.34923706724E+02  0.65072472421E+01 -0.70027592693E+03  0.70117642815E+03  0.00000000000E+00 0. -1.
<mgrwt>
<rscale>  1 0.30000000E+03</rscale>
<asrwt>0</asrwt>
<pdfrwt beam="1">  1       21 0.55032627E-02 0.30000000E+03</pdfrwt>
<pdfrwt beam="2">0</pdfrwt>
<totfact> 0.24449274E+04</totfact>
</mgrwt>
</event>
<event>
 6    1  0.1273846E-001  0.3000000E+03  0.7818608E-02  0.1093470E+00
         21   -1    0    0  501  502  0.00000000000E+00  0.00000000000E+00  0.16335945026E+01  0.16335945026E+01  0.00000000000E+00 0. -1.
         13   -1    0    0    0    0 -0.00000000000E+00 -0.00000000000E+00 -0.10000000000E+04  0.10000000000E+04  0.00000000000E+00 0.  1.
    9000005    2    1    2  501    0  0.31878677459E+02 -0.15025070928E+02 -0.74356885322E+03  0.74441035395E+03  0.31831994564E+01 0.  0.
         13    1    3    3    0    0  0.20052062209E+02 -0.10607576627E+02 -0.50061721458E+03  0.50113092243E+03  0.00000000000E+00 0.  1.
          1    1    3    3  501    0  0.11826615250E+02 -0.44174943008E+01 -0.24295163863E+03  0.24327943152E+03  0.00000000000E+00 0.  1.
         -3    1    1    2    0  502 -0.31878677459E+02  0.15025070928E+02 -0.25479755228E+03  0.25722324055E+03  0.00000000000E+00 0. -1.
<mgrwt>
<rscale>  1 0.30000000E+03</rscale>
<asrwt>0</asrwt>
<pdfrwt beam="1">  1       21 0.59403562E-02 0.30000000E+03</pdfrwt>
<pdfrwt beam="2">0</pdfrwt>
<totfact> 0.21437800E+04</totfact>
</mgrwt>
</event>
<event>
 6    1  0.1273846E-001  0.3000000E+03  0.7818608E-02  0.1093470E+00
         21   -1    0    0  501  502  0.00000000000E+00  0.00000000000E+00  0.19533983434E+01  0.19533983434E+01  0.00000000000E+00 0. -1.
         13   -1    0    0    0    0 -0.00000000000E+00 -0.00000000000E+00 -0.10000000000E+04  0.10000000000E+04  0.00000000000E+00 0.  1.
    9000005    2    1    2  501    0  0.69621268127E+01  0.33366411156E+02 -0.81757439823E+03  0.81829065086E+03  0.31470688252E+01 0.  0.
         13    1    3    3    0    0  0.23084670199E+01  0.84787853901E+01 -0.18165624016E+03  0.18186865703E+03  0.00000000000E+00 0.  1.
          1    1    3    3  501    0  0.46536597929E+01  0.24887625766E+02 -0.63591815807E+03  0.63642199383E+03  0.00000000000E+00 0.  1.
         -3    1    1    2    0  502 -0.69621268127E+01 -0.33366411156E+02 -0.18047220343E+03  0.18366274749E+03  0.00000000000E+00 0. -1.
<mgrwt>
<rscale>  1 0.30000000E+03</rscale>
<asrwt>0</asrwt>
<pdfrwt beam="1">  1       21 0.71032817E-02 0.30000000E+03</pdfrwt>
<pdfrwt beam="2">0</pdfrwt>
<totfact> 0.15728951E+04</totfact>
</mgrwt>
</event>
<event>
 6    1  0.1273846E-001  0.3000000E+03  0.7818608E-02  0.1093470E+00
         21   -1    0    0  501  502  0.00000000000E+00  0.00000000000E+00  0.36963135024E+01  0.36963135024E+01  0.00000000000E+00 0. -1.
         13   -1    0    0    0    0 -0.00000000000E+00 -0.00000000000E+00 -0.10000000000E+04  0.10000000000E+04  0.00000000000E+00 0.  1.
    9000005    2    1    2  501    0 -0.79323277023E+01  0.30667749455E+02 -0.92643852564E+03  0.92698534049E+03  0.31697012877E+01 0.  0.
         13    1    3    3    0    0 -0.77223186515E+01  0.30244173220E+02 -0.92004580425E+03  0.92057516051E+03  0.00000000000E+00 0.  1.
          1    1    3    3  501    0 -0.21000905081E+00  0.42357623523E+00 -0.63927213897E+01  0.64101799815E+01  0.00000000000E+00 0.  1.
         -3    1    1    2    0  502  0.79323277023E+01 -0.30667749455E+02 -0.69865160853E+02  0.76710973012E+02  0.00000000000E+00 0. -1.
<mgrwt>
<rscale>  1 0.30000000E+03</rscale>
<asrwt>0</asrwt>
<pdfrwt beam="1">  1       21 0.13441168E-01 0.30000000E+03</pdfrwt>
<pdfrwt beam="2">0</pdfrwt>
<totfact> 0.50394426E+03</totfact>
</mgrwt>
</event>
<event>
 6    1  0.1273846E-001  0.3000000E+03  0.7818608E-02  0.1093470E+00
         21   -1    0    0  501  502  0.00000000000E+00  0.00000000000E+00  0.13895760048E+01  0.13895760048E+01  0.00000000000E+00 0. -1.
         13   -1    0    0    0    0 -0.00000000000E+00 -0.00000000000E+00 -0.10000000000E+04  0.10000000000E+04  0.00000000000E+00 0.  1.
    9000005    2    1    2  501    0  0.33690861180E+01  0.33557598862E+02 -0.71199478744E+03  0.71279646053E+03  0.21802790964E+01 0.  0.
         13    1    3    3    0    0  0.35382157619E+01  0.32797167444E+02 -0.69039711903E+03  0.69118474747E+03  0.00000000000E+00 0.  1.
          3    1    3    3  501    0 -0.16912964384E+00  0.76043141799E+00 -0.21597668410E+02  0.21611713063E+02  0.00000000000E+00 0.  1.
         -3    1    1    2    0  502 -0.33690861180E+01 -0.33557598862E+02 -0.28661563655E+03  0.28859311547E+03  0.00000000000E+00 0. -1.
<mgrwt>
<rscale>  1 0.30000000E+03</rscale>
<asrwt>0</asrwt>
<pdfrwt beam="1">  1       21 0.50530143E-02 0.30000000E+03</pdfrwt>
<pdfrwt beam="2">0</pdfrwt>
<totfact> 0.28291247E+04</totfact>
</mgrwt>
</event>
<event>
 6    1  0.1273846E-001  0.3000000E+03  0.7818608E-02  0.1093470E+00
         21   -1    0    0  501  502  0.00000000000E+00  0.00000000000E+00  0.13129409931E+01  0.13129409931E+01  0.00000000000E+00 0. -1.
         13   -1    0    0    0    0 -0.00000000000E+00 -0.00000000000E+00 -0.10000000000E+04  0.10000000000E+04  0.00000000000E+00 0.  1.
    9000005    2    1    2  501    0 -0.80241538578E+01  0.34687530255E+02 -0.41064797808E+03  0.41219701649E+03  0.26470182268E+01 0.  0.
         13    1    3    3    0    0 -0.21011518076E+01  0.56465867601E+01 -0.62518843658E+02  0.62808475489E+02  0.00000000000E+00 0.  1.
          1    1    3    3  501    0 -0.59230020502E+01  0.29040943495E+02 -0.34812913442E+03  0.34938854100E+03  0.00000000000E+00 0.  1.
         -3    1    1    2    0  502  0.80241538578E+01 -0.34687530255E+02 -0.58803908093E+03  0.58911592450E+03  0.00000000000E+00 0. -1.
<mgrwt>
<rscale>  1 0.30000000E+03</rscale>
<asrwt>0</asrwt>
<pdfrwt beam="1">  1       21 0.47743410E-02 0.30000000E+03</pdfrwt>
<pdfrwt beam="2">0</pdfrwt>
<totfact> 0.31161429E+04</totfact>
</mgrwt>
</event>
<event>
 6    1  0.1273846E-001  0.3000000E+03  0.7818608E-02  0.1093470E+00
         21   -1    0    0  501  502  0.00000000000E+00  0.00000000000E+00  0.12667715588E+01  0.12667715588E+01  0.00000000000E+00 0. -1.
         13   -1    0    0    0    0 -0.00000000000E+00 -0.00000000000E+00 -0.10000000000E+04  0.10000000000E+04  0.00000000000E+00 0.  1.
    9000005    2    1    2  501    0  0.26079906880E+02 -0.19741987821E+02 -0.69511176964E+03  0.69588848505E+03  0.32409424746E+01 0.  0.
         13    1    3    3    0    0  0.33981099533E+01 -0.29194309342E+01 -0.74514524073E+02  0.74649075855E+02  0.00000000000E+00 0.  1.
          1    1    3    3  501    0  0.22681796927E+02 -0.16822556887E+02 -0.62059724556E+03  0.62123940919E+03  0.00000000000E+00 0.  1.
         -1    1    1    2    0  502 -0.26079906880E+02  0.19741987821E+02 -0.30362145880E+03  0.30537828651E+03  0.00000000000E+00 0. -1.
<mgrwt>
<rscale>  1 0.30000000E+03</rscale>
<asrwt>0</asrwt>
<pdfrwt beam="1">  1       21 0.46064517E-02 0.30000000E+03</pdfrwt>
<pdfrwt beam="2">0</pdfrwt>
<totfact> 0.33116830E+04</totfact>
</mgrwt>
</event>
<event>
 6    1  0.1273846E-001  0.3000000E+03  0.7818608E-02  0.1093470E+00
         21   -1    0    0  501  502  0.00000000000E+00  0.00000000000E+00  0.11674623780E+01  0.11674623780E+01  0.00000000000E+00 0. -1.
         13   -1    0    0    0    0 -0.00000000000E+00 -0.00000000000E+00 -0.10000000000E+04  0.10000000000E+04  0.00000000000E+00 0.  1.
    9000005    2    1    2  501    0 -0.31123181467E+02  0.13274519628E+02 -0.44180223965E+03  0.44311045978E+03  0.35770526847E+01 0.  0.
         13    1    3    3    0    0 -0.22508224717E+02  0.85055803630E+01 -0.29627681430E+03  0.29725227631E+03  0.00000000000E+00 0.  1.
          3    1    3    3  501    0 -0.86149567506E+01  0.47689392653E+01 -0.14552542535E+03  0.14585818347E+03  0.00000000000E+00 0.  1.
         -3    1    1    2    0  502  0.31123181467E+02 -0.13274519628E+02 -0.55703029797E+03  0.55805700260E+03  0.00000000000E+00 0. -1.
<mgrwt>
<rscale>  1 0.30000000E+03</rscale>
<asrwt>0</asrwt>
<pdfrwt beam="1">  1       21 0.42453267E-02 0.30000000E+03</pdfrwt>
<pdfrwt beam="2">0</pdfrwt>
<totfact> 0.38030584E+04</totfact>
</mgrwt>
</event>
<event>
 6    1  0.1273846E-001  0.3000000E+03  0.7818608E-02  0.1093470E+00
         21   -1    0    0  501  502  0.00000000000E+00  0.00000000000E+00  0.18489418633E+01  0.18489418633E+01  0.00000000000E+00 0. -1.
         13   -1    0    0    0    0 -0.00000000000E+00 -0.00000000000E+00 -0.10000000000E+04  0.10000000000E+04  0.00000000000E+00 0.  1.
    9000005    2    1    2  501    0  0.28071490297E+01 -0.42842498275E+02 -0.51147578275E+03  0.51328350774E+03  0.30204697161E+01 0.  0.
         13    1    3    3    0    0  0.21976701699E+01 -0.35370735999E+02 -0.40773682723E+03  0.40927403900E+03  0.00000000000E+00 0.  1.
          1    1    3    3  501    0  0.60947885983E+00 -0.74717622766E+01 -0.10373895551E+03  0.10400946874E+03  0.00000000000E+00 0.  1.
         -3    1    1    2    0  502 -0.28071490297E+01  0.42842498275E+02 -0.48667527539E+03  0.48856543412E+03  0.00000000000E+00 0. -1.
<mgrwt>
<rscale>  1 0.30000000E+03</rscale>
<asrwt>0</asrwt>
<pdfrwt beam="1">  1       21 0.67234391E-02 0.30000000E+03</pdfrwt>
<pdfrwt beam="2">0</pdfrwt>
<totfact> 0.17306009E+04</totfact>
</mgrwt>
</event>
<event>
 6    1  0.1273846E-001  0.3000000E+03  0.7818608E-02  0.1093470E+00
         21   -1    0    0  501  502  0.00000000000E+00  0.00000000000E+00  0.12097343499E+01  0.12097343499E+01  0.00000000000E+00 0. -1.
         13   -1    0    0    0    0 -0.00000000000E+00 -0.00000000000E+00 -0.10000000000E+04  0.10000000000E+04  0.00000000000E+00 0.  1.
    9000005    2    1    2  501    0 -0.82834397324E+01  0.33399711293E+02 -0.56110309203E+03  0.56217190222E+03  0.40511323884E+01 0.  0.
         13    1    3    3    0    0 -0.15986587646E+01  0.28814682444E+01 -0.41642806143E+02  0.41772980173E+02  0.00000000000E+00 0.  1.
          1    1    3    3  501    0 -0.66847809678E+01  0.30518243049E+02 -0.51946028589E+03  0.52039892205E+03  0.00000000000E+00 0.  1.
         -1    1    1    2    0  502  0.82834397324E+01 -0.33399711293E+02 -0.43768717362E+03  0.43903783213E+03  0.00000000000E+00 0. -1.
<mgrwt>
<rscale>  1 0.30000000E+03</rscale>
<asrwt>0</asrwt>
<pdfrwt beam="1">  1       21 0.43990433E-02 0.30000000E+03</pdfrwt>
<pdfrwt beam="2">0</pdfrwt>
<totfact> 0.35809593E+04</totfact>
</mgrwt>
</event>
<event>
 6    1  0.1273846E-001  0.3000000E+03  0.7818608E-02  0.1093470E+00
         21   -1    0    0  501  502  0.00000000000E+00  0.00000000000E+00  0.12721487538E+01  0.12721487538E+01  0.00000000000E+00 0. -1.
         13   -1    0    0    0    0 -0.00000000000E+00 -0.00000000000E+00 -0.10000000000E+04  0.10000000000E+04  0.00000000000E+00 0.  1.
    9000005    2    1    2  501    0 -0.30304646965E+02  0.13525513283E+02 -0.68077229614E+03  0.68158942142E+03  0.34509495977E+01 0.  0.
         13    1    3    3    0    0 -0.28165463166E+02  0.12503850673E+02 -0.64741473580E+03  0.64814772986E+03  0.00000000000E+00 0.  1.
          3    1    3    3  501    0 -0.21391837988E+01  0.10216626101E+01 -0.33357560343E+02  0.33441691552E+02  0.00000000000E+00 0.  1.
         -3    1    1    2    0  502  0.30304646965E+02 -0.13525513283E+02 -0.31795555510E+03  0.31968272734E+03  0.00000000000E+00 0. -1.
<mgrwt>
<rscale>  1 0.30000000E+03</rscale>
<asrwt>0</asrwt>
<pdfrwt beam="1">  1       21 0.46260052E-02 0.30000000E+03</pdfrwt>
<pdfrwt beam="2">0</pdfrwt>
<totfact> 0.32879332E+04</totfact>
</mgrwt>
</event>
<event>
 6    1  0.1273846E-001  0.3000000E+03  0.7818608E-02  0.1093470E+00
         21   -1    0    0  501  502  0.00000000000E+00  0.00000000000E+00  0.10662449306E+01  0.10662449306E+01  0.00000000000E+00 0. -1.
         13   -1    0    0    0    0 -0.00000000000E+00 -0.00000000000E+00 -0.10000000000E+04  0.10000000000E+04  0.00000000000E+00 0.  1.
    9000005    2    1    2  501    0  0.29320001212E+02 -0.80439456542E+01 -0.67901233747E+03  0.67970339553E+03  0.38188915452E+01 0.  0.
         13    1    3    3    0    0  0.17687628740E+02 -0.31200244428E+01 -0.41756989113E+03  0.41795597943E+03  0.00000000000E+00 0.  1.
          1    1    3    3  501    0  0.11632372472E+02 -0.49239212115E+01 -0.26144244634E+03  0.26174741610E+03  0.00000000000E+00 0.  1.
         -3    1    1    2    0  502 -0.29320001212E+02  0.80439456542E+01 -0.31992141760E+03  0.32136284940E+03  0.00000000000E+00 0. -1.
<mgrwt>
<rscale>  1 0.30000000E+03</rscale>
<asrwt>0</asrwt>
<pdfrwt beam="1">  1       21 0.38772625E-02 0.30000000E+03</pdfrwt>
<pdfrwt beam="2">0</pdfrwt>
<totfact> 0.44311275E+04</totfact>
</mgrwt>
</event>
<event>
 6    1  0.1273846E-001  0.3000000E+03  0.7818608E-02  0.1093470E+00
         21   -1    0    0  501  502  0.00000000000E+00  0.00000000000E+00  0.20985677547E+01  0.20985677547E+01  0.00000000000E+00 0. -1.
         13   -1    0    0    0    0 -0.00000000000E+00 -0.00000000000E+00 -0.10000000000E+04  0.10000000000E+04  0.00000000000E+00 0.  1.
    9000005    2    1    2  501    0  0.27098953924E+02  0.25307532745E+02 -0.79272839240E+03  0.79360204309E+03  0.33277866394E+01 0.  0.
         13    1    3    3    0    0  0.13035956569E+02  0.10459631200E+02 -0.33358130962E+03  0.33399974577E+03  0.00000000000E+00 0.  1.
          3    1    3    3  501    0  0.14062997356E+02  0.14847901545E+02 -0.45914708278E+03  0.45960229732E+03  0.00000000000E+00 0.  1.
         -3    1    1    2    0  502 -0.27098953924E+02 -0.25307532745E+02 -0.20517303985E+03  0.20849652466E+03  0.00000000000E+00 0. -1.
<mgrwt>
<rscale>  1 0.30000000E+03</rscale>
<asrwt>0</asrwt>
<pdfrwt beam="1">  1       21 0.76311716E-02 0.30000000E+03</pdfrwt>
<pdfrwt beam="2">0</pdfrwt>
<totfact> 0.13876585E+04</totfact>
</mgrwt>
</event>
<event>
 6    1  0.1273846E-001  0.3000000E+03  0.7818608E-02  0.1093470E+00
         21   -1    0    0  501  502  0.00000000000E+00  0.00000000000E+00  0.97025553794E+00  0.97025553794E+00  0.00000000000E+00 0. -1.
         13   -1    0    0    0    0 -0.00000000000E+00 -0.00000000000E+00 -0.10000000000E+04  0.10000000000E+04  0.00000000000E+00 0.  1.
    9000005    2    1    2  501    0 -0.13824483935E+02  0.27316288298E+02 -0.58833970367E+03  0.58914067237E+03  0.24143258598E+01 0.  0.
         13    1    3    3    0    0 -0.38416809232E+01  0.53952759179E+01 -0.12707673524E+03  0.12724922064E+03  0.00000000000E+00 0.  1.
          1    1    3    3  501    0 -0.99828030120E+01  0.21921012380E+02 -0.46126296843E+03  0.46189145173E+03  0.00000000000E+00 0.  1.
         -3    1    1    2    0  502  0.13824483935E+02 -0.27316288298E+02 -0.41069004079E+03  0.41182958316E+03  0.00000000000E+00 0. -1.
<mgrwt>
<rscale>  1 0.30000000E+03</rscale>
<asrwt>0</asrwt>
<pdfrwt beam="1">  1       21 0.35282094E-02 0.30000000E+03</pdfrwt>
<pdfrwt beam="2">0</pdfrwt>
<totfact> 0.51914068E+04</totfact>
</mgrwt>
</event>
<event>
 6    1  0.1273846E-001  0.3000000E+03  0.7818608E-02  0.1093470E+00
         21   -1    0    0  501  502  0.00000000000E+00  0.00000000000E+00  0.19021201030E+01  0.19021201030E+01  0.00000000000E+00 0. -1.
         13   -1    0    0    0    0 -0.00000000000E+00 -0.00000000000E+00 -0.10000000000E+04  0.10000000000E+04  0.00000000000E+00 0.  1.
    9000005    2    1    2  501    0 -0.36844690423E+02  0.22633218766E+02 -0.55915558437E+03  0.56083508143E+03  0.33507048240E+01 0.  0.
         13    1    3    3    0    0 -0.21937019210E+02  0.15385190653E+02 -0.34478012267E+03  0.34581970720E+03  0.00000000000E+00 0.  1.
          1    1    3    3  501    0 -0.14907671213E+02  0.72480281127E+01 -0.21437546171E+03  0.21501537423E+03  0.00000000000E+00 0.  1.
         -3    1    1    2    0  502  0.36844690423E+02 -0.22633218766E+02 -0.43894229552E+03  0.44106703867E+03  0.00000000000E+00 0. -1.
<mgrwt>
<rscale>  1 0.30000000E+03</rscale>
<asrwt>0</asrwt>
<pdfrwt beam="1">  1       21 0.69168150E-02 0.30000000E+03</pdfrwt>
<pdfrwt beam="2">0</pdfrwt>
<totfact> 0.16474339E+04</totfact>
</mgrwt>
</event>
<event>
 6    1  0.1273846E-001  0.3000000E+03  0.7818608E-02  0.1093470E+00
         21   -1    0    0  501  502  0.00000000000E+00  0.00000000000E+00  0.12053168802E+01  0.12053168802E+01  0.00000000000E+00 0. -1.
         13   -1    0    0    0    0 -0.00000000000E+00 -0.00000000000E+00 -0.10000000000E+04  0.10000000000E+04  0.00000000000E+00 0.  1.
    9000005    2    1    2  501    0 -0.29514411590E+02  0.16299403676E+02 -0.38554754121E+03  0.38703202854E+03  0.31801776526E+01 0.  0.
         13    1    3    3    0    0 -0.41173165102E+01  0.12748781555E+01 -0.42723548645E+02  0.42940414744E+02  0.00000000000E+00 0.  1.
          3    1    3    3  501    0 -0.25397095080E+02  0.15024525520E+02 -0.34282399256E+03  0.34409161379E+03  0.00000000000E+00 0.  1.
         -1    1    1    2    0  502  0.29514411590E+02 -0.16299403676E+02 -0.61324714191E+03  0.61417328834E+03  0.00000000000E+00 0. -1.
<mgrwt>
<rscale>  1 0.30000000E+03</rscale>
<asrwt>0</asrwt>
<pdfrwt beam="1">  1       21 0.43829797E-02 0.30000000E+03</pdfrwt>
<pdfrwt beam="2">0</pdfrwt>
<totfact> 0.36032161E+04</totfact>
</mgrwt>
</event>
<event>
 6    1  0.1273846E-001  0.3000000E+03  0.7818608E-02  0.1093470E+00
         21   -1    0    0  501  502  0.00000000000E+00  0.00000000000E+00  0.23477262146E+01  0.23477262146E+01  0.00000000000E+00 0. -1.
         13   -1    0    0    0    0 -0.00000000000E+00 -0.00000000000E+00 -0.10000000000E+04  0.10000000000E+04  0.00000000000E+00 0.  1.
    9000005    2    1    2  501    0 -0.32732123017E+02 -0.77881871359E+01 -0.85927534949E+03  0.85993908563E+03  0.30094873673E+01 0.  0.
         13    1    3    3    0    0 -0.19096300825E+02 -0.59634713484E+01 -0.52250422134E+03  0.52288707482E+03  0.00000000000E+00 0.  1.
          3    1    3    3  501    0 -0.13635822192E+02 -0.18247157875E+01 -0.33677112815E+03  0.33705201081E+03  0.00000000000E+00 0.  1.
         -3    1    1    2    0  502  0.32732123017E+02  0.77881871359E+01 -0.13837692429E+03  0.14240864058E+03  0.00000000000E+00 0. -1.
<mgrwt>
<rscale>  1 0.30000000E+03</rscale>
<asrwt>0</asrwt>
<pdfrwt beam="1">  1       21 0.85372042E-02 0.30000000E+03</pdfrwt>
<pdfrwt beam="2">0</pdfrwt>
<totfact> 0.11393166E+04</totfact>
</mgrwt>
</event>
<event>
 6    1  0.1273846E-001  0.3000000E+03  0.7818608E-02  0.1093470E+00
         21   -1    0    0  501  502  0.00000000000E+00  0.00000000000E+00  0.12826702483E+01  0.12826702483E+01  0.00000000000E+00 0. -1.
         13   -1    0    0    0    0 -0.00000000000E+00 -0.00000000000E+00 -0.10000000000E+04  0.10000000000E+04  0.00000000000E+00 0.  1.
    9000005    2    1    2  501    0 -0.33442946260E+02 -0.19261136596E+01 -0.67451072618E+03  0.67535006622E+03  0.32941834746E+01 0.  0.
         13    1    3    3    0    0 -0.18590757433E+02 -0.27063016622E+01 -0.37843520210E+03  0.37890123055E+03  0.00000000000E+00 0.  1.
          3    1    3    3  501    0 -0.14852188827E+02  0.78018800250E+00 -0.29607552409E+03  0.29644883567E+03  0.00000000000E+00 0.  1.
         -3    1    1    2    0  502  0.33442946260E+02  0.19261136596E+01 -0.32420660357E+03  0.32593260402E+03  0.00000000000E+00 0. -1.
<mgrwt>
<rscale>  1 0.30000000E+03</rscale>
<asrwt>0</asrwt>
<pdfrwt beam="1">  1       21 0.46642653E-02 0.30000000E+03</pdfrwt>
<pdfrwt beam="2">0</pdfrwt>
<totfact> 0.32422283E+04</totfact>
</mgrwt>
</event>
<event>
 6    1  0.1273846E-001  0.3000000E+03  0.7818608E-02  0.1093470E+00
         21   -1    0    0  501  502  0.00000000000E+00  0.00000000000E+00  0.35788669684E+01  0.35788669684E+01  0.00000000000E+00 0. -1.
         13   -1    0    0    0    0 -0.00000000000E+00 -0.00000000000E+00 -0.10000000000E+04  0.10000000000E+04  0.00000000000E+00 0.  1.
    9000005    2    1    2  501    0  0.67206243834E+01 -0.33527228025E+02 -0.90986135231E+03  0.91050987402E+03  0.33628019166E+01 0.  0.
         13    1    3    3    0    0  0.15138772179E+01 -0.14865853836E+02 -0.41871387960E+03  0.41898042723E+03  0.00000000000E+00 0.  1.
          3    1    3    3  501    0  0.52067471656E+01 -0.18661374188E+02 -0.49114747271E+03  0.49152944678E+03  0.00000000000E+00 0.  1.
         -3    1    1    2    0  502 -0.67206243834E+01  0.33527228025E+02 -0.86559780719E+02  0.93068992953E+02  0.00000000000E+00 0. -1.
<mgrwt>
<rscale>  1 0.30000000E+03</rscale>
<asrwt>0</asrwt>
<pdfrwt beam="1">  1       21 0.13014089E-01 0.30000000E+03</pdfrwt>
<pdfrwt beam="2">0</pdfrwt>
<totfact> 0.53459388E+03</totfact>
</mgrwt>
</event>
<event>
 6    1  0.1273846E-001  0.3000000E+03  0.7818608E-02  0.1093470E+00
         21   -1    0    0  501  502  0.00000000000E+00  0.00000000000E+00  0.12436171582E+01  0.12436171582E+01  0.00000000000E+00 0. -1.
         13   -1    0    0    0    0 -0.00000000000E+00 -0.00000000000E+00 -0.10000000000E+04  0.10000000000E+04  0.00000000000E+00 0.  1.
    9000005    2    1    2  501    0 -0.24549760018E+02 -0.18883156909E+02 -0.73754690320E+03  0.73820434901E+03  0.33109136942E+01 0.  0.
         13    1    3    3    0    0 -0.24261937500E+02 -0.18970428762E+02 -0.73349962558E+03  0.73414591159E+03  0.00000000000E+00 0.  1.
          1    1    3    3  501    0 -0.28782251835E+00  0.87271852787E-01 -0.40472776178E+01  0.40584374203E+01  0.00000000000E+00 0.  1.
         -3    1    1    2    0  502  0.24549760018E+02  0.18883156909E+02 -0.26120947964E+03  0.26303926814E+03  0.00000000000E+00 0. -1.
<mgrwt>
<rscale>  1 0.30000000E+03</rscale>
<asrwt>0</asrwt>
<pdfrwt beam="1">  1       21 0.45222537E-02 0.30000000E+03</pdfrwt>
<pdfrwt beam="2">0</pdfrwt>
<totfact> 0.34170887E+04</totfact>
</mgrwt>
</event>
<event>
 6    1  0.1273846E-001  0.3000000E+03  0.7818608E-02  0.1093470E+00
         21   -1    0    0  501  502  0.00000000000E+00  0.00000000000E+00  0.18387297615E+01  0.18387297615E+01  0.00000000000E+00 0. -1.
         13   -1    0    0    0    0 -0.00000000000E+00 -0.00000000000E+00 -0.10000000000E+04  0.10000000000E+04  0.00000000000E+00 0.  1.
    9000005    2    1    2  501    0 -0.28823380044E+02  0.30952434720E+02 -0.42304083397E+03  0.42516520283E+03  0.36141440868E+01 0.  0.
         13    1    3    3    0    0 -0.59223741439E+01  0.43604950182E+01 -0.73959434430E+02  0.74324197765E+02  0.00000000000E+00 0.  1.
          3    1    3    3  501    0 -0.22901005900E+02  0.26591939702E+02 -0.34908139954E+03  0.35084100507E+03  0.00000000000E+00 0.  1.
         -3    1    1    2    0  502  0.28823380044E+02 -0.30952434720E+02 -0.57512043626E+03  0.57667352693E+03  0.00000000000E+00 0. -1.
<mgrwt>
<rscale>  1 0.30000000E+03</rscale>
<asrwt>0</asrwt>
<pdfrwt beam="1">  1       21 0.66863041E-02 0.30000000E+03</pdfrwt>
<pdfrwt beam="2">0</pdfrwt>
<totfact> 0.17473089E+04</totfact>
</mgrwt>
</event>
<event>
 6    1  0.1273846E-001  0.3000000E+03  0.7818608E-02  0.1093470E+00
         21   -1    0    0  501  502  0.00000000000E+00  0.00000000000E+00  0.27770737274E+01  0.27770737274E+01  0.00000000000E+00 0. -1.
         13   -1    0    0    0    0 -0.00000000000E+00 -0.00000000000E+00 -0.10000000000E+04  0.10000000000E+04  0.00000000000E+00 0.  1.
    9000005    2    1    2  501    0  0.40211055248E+02  0.17718310734E+02 -0.77496091324E+03  0.77621302112E+03  0.33718833798E+01 0.  0.
         13    1    3    3    0    0  0.38531244593E+02  0.16174013009E+02 -0.73379014649E+03  0.73497907085E+03  0.00000000000E+00 0.  1.
          3    1    3    3  501    0  0.16798106542E+01  0.15442977250E+01 -0.41170766753E+02  0.41233950263E+02  0.00000000000E+00 0.  1.
         -1    1    1    2    0  502 -0.40211055248E+02 -0.17718310734E+02 -0.22226201303E+03  0.22656405261E+03  0.00000000000E+00 0. -1.
<mgrwt>
<rscale>  1 0.30000000E+03</rscale>
<asrwt>0</asrwt>
<pdfrwt beam="1">  1       21 0.10098471E-01 0.30000000E+03</pdfrwt>
<pdfrwt beam="2">0</pdfrwt>
<totfact> 0.84538306E+03</totfact>
</mgrwt>
</event>
<event>
 6    1  0.1273846E-001  0.3000000E+03  0.7818608E-02  0.1093470E+00
         21   -1    0    0  501  502  0.00000000000E+00  0.00000000000E+00  0.19290894199E+01  0.19290894199E+01  0.00000000000E+00 0. -1.
         13   -1    0    0    0    0 -0.00000000000E+00 -0.00000000000E+00 -0.10000000000E+04  0.10000000000E+04  0.00000000000E+00 0.  1.
    9000005    2    1    2  501    0  0.12885375979E+02  0.31618678056E+02 -0.81376442287E+03  0.81448668459E+03  0.32015199671E+01 0.  0.
         13    1    3    3    0    0  0.54686322739E+01  0.14862249818E+02 -0.41312050768E+03  0.41342393046E+03  0.00000000000E+00 0.  1.
          1    1    3    3  501    0  0.74167437055E+01  0.16756428238E+02 -0.40064391519E+03  0.40106275414E+03  0.00000000000E+00 0.  1.
         -3    1    1    2    0  502 -0.12885375979E+02 -0.31618678056E+02 -0.18430648771E+03  0.18744240483E+03  0.00000000000E+00 0. -1.
<mgrwt>
<rscale>  1 0.30000000E+03</rscale>
<asrwt>0</asrwt>
<pdfrwt beam="1">  1       21 0.70148854E-02 0.30000000E+03</pdfrwt>
<pdfrwt beam="2">0</pdfrwt>
<totfact> 0.16075742E+04</totfact>
</mgrwt>
</event>
<event>
 6    1  0.1273846E-001  0.3000000E+03  0.7818608E-02  0.1093470E+00
         21   -1    0    0  501  502  0.00000000000E+00  0.00000000000E+00  0.25214643867E+01  0.25214643867E+01  0.00000000000E+00 0. -1.
         13   -1    0    0    0    0 -0.00000000000E+00 -0.00000000000E+00 -0.10000000000E+04  0.10000000000E+04  0.00000000000E+00 0.  1.
    9000005    2    1    2  501    0 -0.45471095974E+02 -0.98359588919E+01 -0.68632928482E+03  0.68791341788E+03  0.35519915475E+01 0.  0.
         13    1    3    3    0    0 -0.40750501356E+01 -0.14229459906E+01 -0.51740839743E+02  0.51920567275E+02  0.00000000000E+00 0.  1.
          3    1    3    3  501    0 -0.41396045838E+02 -0.84130129013E+01 -0.63458844507E+03  0.63599285060E+03  0.00000000000E+00 0.  1.
         -3    1    1    2    0  502  0.45471095974E+02  0.98359588919E+01 -0.31114925080E+03  0.31460804651E+03  0.00000000000E+00 0. -1.
<mgrwt>
<rscale>  1 0.30000000E+03</rscale>
<asrwt>0</asrwt>
<pdfrwt beam="1">  1       21 0.91689807E-02 0.30000000E+03</pdfrwt>
<pdfrwt beam="2">0</pdfrwt>
<totfact> 0.10041360E+04</totfact>
</mgrwt>
</event>
<event>
 6    1  0.1273846E-001  0.3000000E+03  0.7818608E-02  0.1093470E+00
         21   -1    0    0  501  502  0.00000000000E+00  0.00000000000E+00  0.53129296461E+01  0.53129296461E+01  0.00000000000E+00 0. -1.
         13   -1    0    0    0    0 -0.00000000000E+00 -0.00000000000E+00 -0.10000000000E+04  0.10000000000E+04  0.00000000000E+00 0.  1.
    9000005    2    1    2  501    0  0.23556840915E+01  0.31985815706E+02 -0.94867381288E+03  0.94922494950E+03  0.41665151243E+01 0.  0.
         13    1    3    3    0    0 -0.35199520040E+00  0.75092909673E+01 -0.26952601028E+03  0.26963082830E+03  0.00000000000E+00 0.  1.
          1    1    3    3  501    0  0.27076792919E+01  0.24476524739E+02 -0.67914780260E+03  0.67959412120E+03  0.00000000000E+00 0.  1.
         -1    1    1    2    0  502 -0.23556840915E+01 -0.31985815706E+02 -0.46013257473E+02  0.56087980149E+02  0.00000000000E+00 0. -1.
<mgrwt>
<rscale>  1 0.30000000E+03</rscale>
<asrwt>0</asrwt>
<pdfrwt beam="1">  1       21 0.19319785E-01 0.30000000E+03</pdfrwt>
<pdfrwt beam="2">0</pdfrwt>
<totfact> 0.25626313E+03</totfact>
</mgrwt>
</event>
<event>
 6    1  0.1273846E-001  0.3000000E+03  0.7818608E-02  0.1093470E+00
         21   -1    0    0  501  502  0.00000000000E+00  0.00000000000E+00  0.97517559887E+00  0.97517559887E+00  0.00000000000E+00 0. -1.
         13   -1    0    0    0    0 -0.00000000000E+00 -0.00000000000E+00 -0.10000000000E+04  0.10000000000E+04  0.00000000000E+00 0.  1.
    9000005    2    1    2  501    0 -0.30411029107E+02 -0.67112062095E+01 -0.48876798896E+03  0.48976884828E+03  0.30832985309E+01 0.  0.
         13    1    3    3    0    0 -0.90977741891E+01 -0.11652733152E+01 -0.16217997809E+03  0.16243913521E+03  0.00000000000E+00 0.  1.
          3    1    3    3  501    0 -0.21313254918E+02 -0.55459328943E+01 -0.32658801087E+03  0.32732971306E+03  0.00000000000E+00 0.  1.
         -3    1    1    2    0  502  0.30411029107E+02  0.67112062095E+01 -0.51025683544E+03  0.51120632732E+03  0.00000000000E+00 0. -1.
<mgrwt>
<rscale>  1 0.30000000E+03</rscale>
<asrwt>0</asrwt>
<pdfrwt beam="1">  1       21 0.35461006E-02 0.30000000E+03</pdfrwt>
<pdfrwt beam="2">0</pdfrwt>
<totfact> 0.51475891E+04</totfact>
</mgrwt>
</event>
<event>
 6    1  0.1273846E-001  0.3000000E+03  0.7818608E-02  0.1093470E+00
         21   -1    0    0  501  502  0.00000000000E+00  0.00000000000E+00  0.63126547171E+01  0.63126547171E+01  0.00000000000E+00 0. -1.
         13   -1    0    0    0    0 -0.00000000000E+00 -0.00000000000E+00 -0.10000000000E+04  0.10000000000E+04  0.00000000000E+00 0.  1.
    9000005    2    1    2  501    0 -0.40697790981E+02  0.64394404234E+02 -0.63908593927E+03  0.64362117889E+03  0.37992976631E+01 0.  0.
         13    1    3    3    0    0 -0.22725147095E+02  0.38393303608E+02 -0.38535111717E+03  0.38792520101E+03  0.00000000000E+00 0.  1.
          1    1    3    3  501    0 -0.17972643887E+02  0.26001100626E+02 -0.25373482210E+03  0.25569597788E+03  0.00000000000E+00 0.  1.
         -1    1    1    2    0  502  0.40697790981E+02 -0.64394404234E+02 -0.35460140602E+03  0.36269147583E+03  0.00000000000E+00 0. -1.
<mgrwt>
<rscale>  1 0.30000000E+03</rscale>
<asrwt>0</asrwt>
<pdfrwt beam="1">  1       21 0.22955156E-01 0.30000000E+03</pdfrwt>
<pdfrwt beam="2">0</pdfrwt>
<totfact> 0.18412166E+03</totfact>
</mgrwt>
</event>
<event>
 6    1  0.1273846E-001  0.3000000E+03  0.7818608E-02  0.1093470E+00
         21   -1    0    0  501  502  0.00000000000E+00  0.00000000000E+00  0.17992829040E+01  0.17992829040E+01  0.00000000000E+00 0. -1.
         13   -1    0    0    0    0 -0.00000000000E+00 -0.00000000000E+00 -0.10000000000E+04  0.10000000000E+04  0.00000000000E+00 0.  1.
    9000005    2    1    2  501    0  0.24324501936E+02 -0.24863149879E+02 -0.78536484079E+03  0.78613990365E+03  0.28561073049E+01 0.  0.
         13    1    3    3    0    0  0.22395587454E+02 -0.21755551843E+02 -0.71074915196E+03  0.71143462341E+03  0.00000000000E+00 0.  1.
          3    1    3    3  501    0  0.19289144817E+01 -0.31075980354E+01 -0.74615688826E+02  0.74705280239E+02  0.00000000000E+00 0.  1.
         -3    1    1    2    0  502 -0.24324501936E+02  0.24863149879E+02 -0.21283587631E+03  0.21565937925E+03  0.00000000000E+00 0. -1.
<mgrwt>
<rscale>  1 0.30000000E+03</rscale>
<asrwt>0</asrwt>
<pdfrwt beam="1">  1       21 0.65428607E-02 0.30000000E+03</pdfrwt>
<pdfrwt beam="2">0</pdfrwt>
<totfact> 0.18142378E+04</totfact>
</mgrwt>
</event>
<event>
 6    1  0.1273846E-001  0.3000000E+03  0.7818608E-02  0.1093470E+00
         21   -1    0    0  501  502  0.00000000000E+00  0.00000000000E+00  0.13145589404E+01  0.13145589404E+01  0.00000000000E+00 0. -1.
         13   -1    0    0    0    0 -0.00000000000E+00 -0.00000000000E+00 -0.10000000000E+04  0.10000000000E+04  0.00000000000E+00 0.  1.
    9000005    2    1    2  501    0  0.11952429110E+02  0.30466394754E+02 -0.71358052517E+03  0.71433742599E+03  0.31193749271E+01 0.  0.
         13    1    3    3    0    0  0.29811039027E+01  0.11165103229E+02 -0.26701822948E+03  0.26726818252E+03  0.00000000000E+00 0.  1.
          1    1    3    3  501    0  0.89713252074E+01  0.19301291525E+02 -0.44656229569E+03  0.44706924347E+03  0.00000000000E+00 0.  1.
         -1    1    1    2    0  502 -0.11952429110E+02 -0.30466394754E+02 -0.28510491589E+03  0.28697713295E+03  0.00000000000E+00 0. -1.
<mgrwt>
<rscale>  1 0.30000000E+03</rscale>
<asrwt>0</asrwt>
<pdfrwt beam="1">  1       21 0.47802244E-02 0.30000000E+03</pdfrwt>
<pdfrwt beam="2">0</pdfrwt>
<totfact> 0.31096207E+04</totfact>
</mgrwt>
</event>
<event>
 6    1  0.1273846E-001  0.3000000E+03  0.7818608E-02  0.1093470E+00
         21   -1    0    0  501  502  0.00000000000E+00  0.00000000000E+00  0.15451358185E+01  0.15451358185E+01  0.00000000000E+00 0. -1.
         13   -1    0    0    0    0 -0.00000000000E+00 -0.00000000000E+00 -0.10000000000E+04  0.10000000000E+04  0.00000000000E+00 0.  1.
    9000005    2    1    2  501    0  0.19357311501E+01  0.32909032489E+02 -0.77107061283E+03  0.77178363070E+03  0.36511864455E+01 0.  0.
         13    1    3    3    0    0  0.16652783672E+01  0.54369228537E+01 -0.13865938584E+03  0.13877592934E+03  0.00000000000E+00 0.  1.
          1    1    3    3  501    0  0.27045278293E+00  0.27472109635E+02 -0.63241122699E+03  0.63300770135E+03  0.00000000000E+00 0.  1.
         -3    1    1    2    0  502 -0.19357311501E+01 -0.32909032489E+02 -0.22738425135E+03  0.22976150512E+03  0.00000000000E+00 0. -1.
<mgrwt>
<rscale>  1 0.30000000E+03</rscale>
<asrwt>0</asrwt>
<pdfrwt beam="1">  1       21 0.56186876E-02 0.30000000E+03</pdfrwt>
<pdfrwt beam="2">0</pdfrwt>
<totfact> 0.23593693E+04</totfact>
</mgrwt>
</event>
<event>
 6    1  0.1273846E-001  0.3000000E+03  0.7818608E-02  0.1093470E+00
         21   -1    0    0  501  502  0.00000000000E+00  0.00000000000E+00  0.17070946275E+01  0.17070946275E+01  0.00000000000E+00 0. -1.
         13   -1    0    0    0    0 -0.00000000000E+00 -0.00000000000E+00 -0.10000000000E+04  0.10000000000E+04  0.00000000000E+00 0.  1.
    9000005    2    1    2  501    0 -0.24419611668E+02 -0.27018178363E+02 -0.73492716460E+03  0.73583529693E+03  0.30573764868E+01 0.  0.
         13    1    3    3    0    0 -0.21627257322E+02 -0.22372384421E+02 -0.61989704276E+03  0.62067753742E+03  0.00000000000E+00 0.  1.
          3    1    3    3  501    0 -0.27923543466E+01 -0.46457939418E+01 -0.11503012184E+03  0.11515775951E+03  0.00000000000E+00 0.  1.
         -3    1    1    2    0  502  0.24419611668E+02  0.27018178363E+02 -0.26336574078E+03  0.26587179770E+03  0.00000000000E+00 0. -1.
<mgrwt>
<rscale>  1 0.30000000E+03</rscale>
<asrwt>0</asrwt>
<pdfrwt beam="1">  1       21 0.62076299E-02 0.30000000E+03</pdfrwt>
<pdfrwt beam="2">0</pdfrwt>
<totfact> 0.19870089E+04</totfact>
</mgrwt>
</event>
<event>
 6    1  0.1273846E-001  0.3000000E+03  0.7818608E-02  0.1093470E+00
         21   -1    0    0  501  502  0.00000000000E+00  0.00000000000E+00  0.13365615474E+01  0.13365615474E+01  0.00000000000E+00 0. -1.
         13   -1    0    0    0    0 -0.00000000000E+00 -0.00000000000E+00 -0.10000000000E+04  0.10000000000E+04  0.00000000000E+00 0.  1.
    9000005    2    1    2  501    0  0.13175118262E+02 -0.32986525312E+02 -0.61407654439E+03  0.61511282629E+03  0.34773696948E+01 0.  0.
         13    1    3    3    0    0 -0.85606793971E-01 -0.58745077614E-01 -0.51964926560E+00  0.52991967935E+00  0.00000000000E+00 0.  1.
          3    1    3    3  501    0  0.13260725056E+02 -0.32927780235E+02 -0.61355689512E+03  0.61458290661E+03  0.00000000000E+00 0.  1.
         -1    1    1    2    0  502 -0.13175118262E+02  0.32986525312E+02 -0.38458689406E+03  0.38622373526E+03  0.00000000000E+00 0. -1.
<mgrwt>
<rscale>  1 0.30000000E+03</rscale>
<asrwt>0</asrwt>
<pdfrwt beam="1">  1       21 0.48602341E-02 0.30000000E+03</pdfrwt>
<pdfrwt beam="2">0</pdfrwt>
<totfact> 0.30230032E+04</totfact>
</mgrwt>
</event>
<event>
 6    1  0.1273846E-001  0.3000000E+03  0.7818608E-02  0.1093470E+00
         21   -1    0    0  501  502  0.00000000000E+00  0.00000000000E+00  0.25832964532E+01  0.25832964532E+01  0.00000000000E+00 0. -1.
         13   -1    0    0    0    0 -0.00000000000E+00 -0.00000000000E+00 -0.10000000000E+04  0.10000000000E+04  0.00000000000E+00 0.  1.
    9000005    2    1    2  501    0 -0.22934000737E+02  0.41463536818E+02 -0.67859593432E+03  0.68026066900E+03  0.41161199443E+01 0.  0.
         13    1    3    3    0    0 -0.22710144574E+02  0.41194675515E+02 -0.67668135696E+03  0.67831438936E+03  0.00000000000E+00 0.  1.
          3    1    3    3  501    0 -0.22385616274E+00  0.26886130240E+00 -0.19145773603E+01  0.19462796434E+01  0.00000000000E+00 0.  1.
         -1    1    1    2    0  502  0.22934000737E+02 -0.41463536818E+02 -0.31882076923E+03  0.32232262745E+03  0.00000000000E+00 0. -1.
<mgrwt>
<rscale>  1 0.30000000E+03</rscale>
<asrwt>0</asrwt>
<pdfrwt beam="1">  1       21 0.93938251E-02 0.30000000E+03</pdfrwt>
<pdfrwt beam="2">0</pdfrwt>
<totfact> 0.96182611E+03</totfact>
</mgrwt>
</event>
<event>
 6    1  0.1273846E-001  0.3000000E+03  0.7818608E-02  0.1093470E+00
         21   -1    0    0  501  502  0.00000000000E+00  0.00000000000E+00  0.11436081830E+01  0.11436081830E+01  0.00000000000E+00 0. -1.
         13   -1    0    0    0    0 -0.00000000000E+00 -0.00000000000E+00 -0.10000000000E+04  0.10000000000E+04  0.00000000000E+00 0.  1.
    9000005    2    1    2  501    0 -0.23112363348E+01  0.32277083988E+02 -0.35786402246E+03  0.35933493767E+03  0.27905016007E+01 0.  0.
         13    1    3    3    0    0 -0.15071928281E+01  0.16724198154E+02 -0.17057811271E+03  0.17140263408E+03  0.00000000000E+00 0.  1.
          1    1    3    3  501    0 -0.80404350671E+00  0.15552885834E+02 -0.18728590975E+03  0.18793230359E+03  0.00000000000E+00 0.  1.
         -1    1    1    2    0  502  0.23112363348E+01 -0.32277083988E+02 -0.64099236936E+03  0.64180867051E+03  0.00000000000E+00 0. -1.
<mgrwt>
<rscale>  1 0.30000000E+03</rscale>
<asrwt>0</asrwt>
<pdfrwt beam="1">  1       21 0.41585840E-02 0.30000000E+03</pdfrwt>
<pdfrwt beam="2">0</pdfrwt>
<totfact> 0.39379769E+04</totfact>
</mgrwt>
</event>
<event>
 6    1  0.1273846E-001  0.3000000E+03  0.7818608E-02  0.1093470E+00
         21   -1    0    0  501  502  0.00000000000E+00  0.00000000000E+00  0.11912348721E+01  0.11912348721E+01  0.00000000000E+00 0. -1.
         13   -1    0    0    0    0 -0.00000000000E+00 -0.00000000000E+00 -0.10000000000E+04  0.10000000000E+04  0.00000000000E+00 0.  1.
    9000005    2    1    2  501    0 -0.22674006344E+02 -0.20989067704E+02 -0.72109631300E+03  0.72176529192E+03  0.32546080889E+01 0.  0.
         13    1    3    3    0    0 -0.15498584953E+02 -0.12965626055E+02 -0.44254719301E+03  0.44300827491E+03  0.00000000000E+00 0.  1.
          3    1    3    3  501    0 -0.71754213913E+01 -0.80234416499E+01 -0.27854911999E+03  0.27875701701E+03  0.00000000000E+00 0.  1.
         -1    1    1    2    0  502  0.22674006344E+02  0.20989067704E+02 -0.27771245213E+03  0.27942594295E+03  0.00000000000E+00 0. -1.
<mgrwt>
<rscale>  1 0.30000000E+03</rscale>
<asrwt>0</asrwt>
<pdfrwt beam="1">  1       21 0.43317723E-02 0.30000000E+03</pdfrwt>
<pdfrwt beam="2">0</pdfrwt>
<totfact> 0.36756143E+04</totfact>
</mgrwt>
</event>
<event>
 6    1  0.1273846E-001  0.3000000E+03  0.7818608E-02  0.1093470E+00
         21   -1    0    0  501  502  0.00000000000E+00  0.00000000000E+00  0.27573601024E+01  0.27573601024E+01  0.00000000000E+00 0. -1.
         13   -1    0    0    0    0 -0.00000000000E+00 -0.00000000000E+00 -0.10000000000E+04  0.10000000000E+04  0.00000000000E+00 0.  1.
    9000005    2    1    2  501    0  0.36397814040E+02  0.84692107587E+01 -0.85069894195E+03  0.85152381949E+03  0.27562524899E+01 0.  0.
         13    1    3    3    0    0  0.31378954237E+00 -0.17993786987E+00 -0.71067271967E+01  0.71159267114E+01  0.00000000000E+00 0.  1.
          1    1    3    3  501    0  0.36084024498E+02  0.86491486286E+01 -0.84359221475E+03  0.84440789277E+03  0.00000000000E+00 0.  1.
         -3    1    1    2    0  502 -0.36397814040E+02 -0.84692107587E+01 -0.14654369795E+03  0.15123354062E+03  0.00000000000E+00 0. -1.
<mgrwt>
<rscale>  1 0.30000000E+03</rscale>
<asrwt>0</asrwt>
<pdfrwt beam="1">  1       21 0.10026785E-01 0.30000000E+03</pdfrwt>
<pdfrwt beam="2">0</pdfrwt>
<totfact> 0.85621721E+03</totfact>
</mgrwt>
</event>
<event>
 6    1  0.1273846E-001  0.3000000E+03  0.7818608E-02  0.1093470E+00
         21   -1    0    0  501  502  0.00000000000E+00  0.00000000000E+00  0.12720710161E+01  0.12720710161E+01  0.00000000000E+00 0. -1.
         13   -1    0    0    0    0 -0.00000000000E+00 -0.00000000000E+00 -0.10000000000E+04  0.10000000000E+04  0.00000000000E+00 0.  1.
    9000005    2    1    2  501    0 -0.22825205707E+02 -0.19591136618E+02 -0.76775807800E+03  0.76835175264E+03  0.26733497958E+01 0.  0.
         13    1    3    3    0    0 -0.13545217371E+01 -0.17028617806E+01 -0.42868570184E+02  0.42923755393E+02  0.00000000000E+00 0.  1.
          1    1    3    3  501    0 -0.21470683970E+02 -0.17888274837E+02 -0.72488950782E+03  0.72542799725E+03  0.00000000000E+00 0.  1.
         -1    1    1    2    0  502  0.22825205707E+02  0.19591136618E+02 -0.23096985098E+03  0.23292031837E+03  0.00000000000E+00 0. -1.
<mgrwt>
<rscale>  1 0.30000000E+03</rscale>
<asrwt>0</asrwt>
<pdfrwt beam="1">  1       21 0.46257225E-02 0.30000000E+03</pdfrwt>
<pdfrwt beam="2">0</pdfrwt>
<totfact> 0.32882747E+04</totfact>
</mgrwt>
</event>
<event>
 6    1  0.1273846E-001  0.3000000E+03  0.7818608E-02  0.1093470E+00
         21   -1    0    0  501  502  0.00000000000E+00  0.00000000000E+00  0.16090228824E+01  0.16090228824E+01  0.00000000000E+00 0. -1.
         13   -1    0    0    0    0 -0.00000000000E+00 -0.00000000000E+00 -0.10000000000E+04  0.10000000000E+04  0.00000000000E+00 0.  1.
    9000005    2    1    2  501    0 -0.29581685427E+02 -0.26359586219E+02 -0.42910616748E+03  0.43094704028E+03  0.36530346842E+01 0.  0.
         13    1    3    3    0    0 -0.71951848365E+01 -0.46263498022E+01 -0.99987663592E+02  0.10035291061E+03  0.00000000000E+00 0.  1.
          1    1    3    3  501    0 -0.22386500591E+02 -0.21733236417E+02 -0.32911850388E+03  0.33059412967E+03  0.00000000000E+00 0.  1.
         -3    1    1    2    0  502  0.29581685427E+02  0.26359586219E+02 -0.56928480964E+03  0.57066198260E+03  0.00000000000E+00 0. -1.
<mgrwt>
<rscale>  1 0.30000000E+03</rscale>
<asrwt>0</asrwt>
<pdfrwt beam="1">  1       21 0.58510046E-02 0.30000000E+03</pdfrwt>
<pdfrwt beam="2">0</pdfrwt>
<totfact> 0.22005152E+04</totfact>
</mgrwt>
</event>
<event>
 6    1  0.1273846E-001  0.3000000E+03  0.7818608E-02  0.1093470E+00
         21   -1    0    0  501  502  0.00000000000E+00  0.00000000000E+00  0.14875362589E+01  0.14875362589E+01  0.00000000000E+00 0. -1.
         13   -1    0    0    0    0 -0.00000000000E+00 -0.00000000000E+00 -0.10000000000E+04  0.10000000000E+04  0.00000000000E+00 0.  1.
    9000005    2    1    2  501    0 -0.21574314381E+02 -0.31787727516E+02 -0.53412558577E+03  0.53551427190E+03  0.30795092557E+01 0.  0.
         13    1    3    3    0    0 -0.14509076398E+02 -0.19449773387E+02 -0.32243337173E+03  0.32334515025E+03  0.00000000000E+00 0.  1.
          3    1    3    3  501    0 -0.70652379834E+01 -0.12337954129E+02 -0.21169221404E+03  0.21216912166E+03  0.00000000000E+00 0.  1.
         -1    1    1    2    0  502  0.21574314381E+02  0.31787727516E+02 -0.46438687797E+03  0.46597326436E+03  0.00000000000E+00 0. -1.
<mgrwt>
<rscale>  1 0.30000000E+03</rscale>
<asrwt>0</asrwt>
<pdfrwt beam="1">  1       21 0.54092342E-02 0.30000000E+03</pdfrwt>
<pdfrwt beam="2">0</pdfrwt>
<totfact> 0.25182101E+04</totfact>
</mgrwt>
</event>
<event>
 6    1  0.1273846E-001  0.3000000E+03  0.7818608E-02  0.1093470E+00
         21   -1    0    0  501  502  0.00000000000E+00  0.00000000000E+00  0.19219772470E+01  0.19219772470E+01  0.00000000000E+00 0. -1.
         13   -1    0    0    0    0 -0.00000000000E+00 -0.00000000000E+00 -0.10000000000E+04  0.10000000000E+04  0.00000000000E+00 0.  1.
    9000005    2    1    2  501    0  0.34672228221E+02 -0.25939896453E+02 -0.57325935266E+03  0.57490213685E+03  0.33376486343E+01 0.  0.
         13    1    3    3    0    0  0.22137044522E+02 -0.18163614127E+02 -0.39040037071E+03  0.39144912194E+03  0.00000000000E+00 0.  1.
          1    1    3    3  501    0  0.12535183699E+02 -0.77762823261E+01 -0.18285898195E+03  0.18345301490E+03  0.00000000000E+00 0.  1.
         -1    1    1    2    0  502 -0.34672228221E+02  0.25939896453E+02 -0.42481867009E+03  0.42701984040E+03  0.00000000000E+00 0. -1.
<mgrwt>
<rscale>  1 0.30000000E+03</rscale>
<asrwt>0</asrwt>
<pdfrwt beam="1">  1       21 0.69890229E-02 0.30000000E+03</pdfrwt>
<pdfrwt beam="2">0</pdfrwt>
<totfact> 0.16179414E+04</totfact>
</mgrwt>
</event>
<event>
 6    1  0.1273846E-001  0.3000000E+03  0.7818608E-02  0.1093470E+00
         21   -1    0    0  501  502  0.00000000000E+00  0.00000000000E+00  0.23501952273E+01  0.23501952273E+01  0.00000000000E+00 0. -1.
         13   -1    0    0    0    0 -0.00000000000E+00 -0.00000000000E+00 -0.10000000000E+04  0.10000000000E+04  0.00000000000E+00 0.  1.
    9000005    2    1    2  501    0 -0.30082457909E+02 -0.20086201343E+02 -0.83222900956E+03  0.83302078477E+03  0.31770648927E+01 0.  0.
         13    1    3    3    0    0 -0.17802816489E+02 -0.13645182051E+02 -0.50288378898E+03  0.50338378648E+03  0.00000000000E+00 0.  1.
          1    1    3    3  501    0 -0.12279641420E+02 -0.64410192911E+01 -0.32934522058E+03  0.32963699829E+03  0.00000000000E+00 0.  1.
         -1    1    1    2    0  502  0.30082457909E+02  0.20086201343E+02 -0.16542079521E+03  0.16932941046E+03  0.00000000000E+00 0. -1.
<mgrwt>
<rscale>  1 0.30000000E+03</rscale>
<asrwt>0</asrwt>
<pdfrwt beam="1">  1       21 0.85461825E-02 0.30000000E+03</pdfrwt>
<pdfrwt beam="2">0</pdfrwt>
<totfact> 0.11372060E+04</totfact>
</mgrwt>
</event>
<event>
 6    1  0.1273846E-001  0.3000000E+03  0.7818608E-02  0.1093470E+00
         21   -1    0    0  501  502  0.00000000000E+00  0.00000000000E+00  0.40997340222E+01  0.40997340222E+01  0.00000000000E+00 0. -1.
         13   -1    0    0    0    0 -0.00000000000E+00 -0.00000000000E+00 -0.10000000000E+04  0.10000000000E+04  0.00000000000E+00 0.  1.
    9000005    2    1    2  501    0 -0.64829059671E+01  0.35992155894E+02 -0.90998184694E+03  0.91072180256E+03  0.31267438754E+01 0.  0.
         13    1    3    3    0    0  0.27944958050E+00  0.33008081763E+01 -0.76632614665E+02  0.76704178876E+02  0.00000000000E+00 0.  1.
          1    1    3    3  501    0 -0.67623555476E+01  0.32691347717E+02 -0.83334923228E+03  0.83401762368E+03  0.00000000000E+00 0.  1.
         -1    1    1    2    0  502  0.64829059671E+01 -0.35992155894E+02 -0.85918419033E+02  0.93377931466E+02  0.00000000000E+00 0. -1.
<mgrwt>
<rscale>  1 0.30000000E+03</rscale>
<asrwt>0</asrwt>
<pdfrwt beam="1">  1       21 0.14908155E-01 0.30000000E+03</pdfrwt>
<pdfrwt beam="2">0</pdfrwt>
<totfact> 0.41650989E+03</totfact>
</mgrwt>
</event>
<event>
 6    1  0.1273846E-001  0.3000000E+03  0.7818608E-02  0.1093470E+00
         21   -1    0    0  501  502  0.00000000000E+00  0.00000000000E+00  0.15446613513E+01  0.15446613513E+01  0.00000000000E+00 0. -1.
         13   -1    0    0    0    0 -0.00000000000E+00 -0.00000000000E+00 -0.10000000000E+04  0.10000000000E+04  0.00000000000E+00 0.  1.
    9000005    2    1    2  501    0  0.30599736063E+02  0.15193387915E+01 -0.81207769511E+03  0.81266565709E+03  0.40786137658E+01 0.  0.
         13    1    3    3    0    0  0.71217520695E+01  0.20886357500E+01 -0.19799022384E+03  0.19812927721E+03  0.00000000000E+00 0.  1.
          3    1    3    3  501    0  0.23477983994E+02 -0.56929695853E+00 -0.61408747127E+03  0.61453637988E+03  0.00000000000E+00 0.  1.
         -3    1    1    2    0  502 -0.30599736063E+02 -0.15193387915E+01 -0.18637764354E+03  0.18887900426E+03  0.00000000000E+00 0. -1.
<mgrwt>
<rscale>  1 0.30000000E+03</rscale>
<asrwt>0</asrwt>
<pdfrwt beam="1">  1       21 0.56169622E-02 0.30000000E+03</pdfrwt>
<pdfrwt beam="2">0</pdfrwt>
<totfact> 0.23606141E+04</totfact>
</mgrwt>
</event>
<event>
 6    1  0.1273846E-001  0.3000000E+03  0.7818608E-02  0.1093470E+00
         21   -1    0    0  501  502  0.00000000000E+00  0.00000000000E+00  0.10772024757E+01  0.10772024757E+01  0.00000000000E+00 0. -1.
         13   -1    0    0    0    0 -0.00000000000E+00 -0.00000000000E+00 -0.10000000000E+04  0.10000000000E+04  0.00000000000E+00 0.  1.
    9000005    2    1    2  501    0 -0.27644752682E+02  0.15670181785E+02 -0.62084636847E+03  0.62166769659E+03  0.32748734844E+01 0.  0.
         13    1    3    3    0    0 -0.16161049555E+02  0.90887875843E+01 -0.39310600686E+03  0.39354303222E+03  0.00000000000E+00 0.  1.
          1    1    3    3  501    0 -0.11483703127E+02  0.65813942005E+01 -0.22774036161E+03  0.22812466437E+03  0.00000000000E+00 0.  1.
         -1    1    1    2    0  502  0.27644752682E+02 -0.15670181785E+02 -0.37807642906E+03  0.37940950589E+03  0.00000000000E+00 0. -1.
<mgrwt>
<rscale>  1 0.30000000E+03</rscale>
<asrwt>0</asrwt>
<pdfrwt beam="1">  1       21 0.39171082E-02 0.30000000E+03</pdfrwt>
<pdfrwt beam="2">0</pdfrwt>
<totfact> 0.43555782E+04</totfact>
</mgrwt>
</event>
<event>
 6    1  0.1273846E-001  0.3000000E+03  0.7818608E-02  0.1093470E+00
         21   -1    0    0  501  502  0.00000000000E+00  0.00000000000E+00  0.93942815708E+00  0.93942815708E+00  0.00000000000E+00 0. -1.
         13   -1    0    0    0    0 -0.00000000000E+00 -0.00000000000E+00 -0.10000000000E+04  0.10000000000E+04  0.00000000000E+00 0.  1.
    9000005    2    1    2  501    0 -0.34234418206E+01 -0.30357962518E+02 -0.49628448914E+03  0.49723602814E+03  0.34709776443E+01 0.  0.
         13    1    3    3    0    0 -0.52347833182E+00 -0.18977741345E+01 -0.21282435572E+02  0.21373292683E+02  0.00000000000E+00 0.  1.
          3    1    3    3  501    0 -0.28999634888E+01 -0.28460188383E+02 -0.47500205356E+03  0.47586273546E+03  0.00000000000E+00 0.  1.
         -1    1    1    2    0  502  0.34234418206E+01  0.30357962518E+02 -0.50277608271E+03  0.50370340001E+03  0.00000000000E+00 0. -1.
<mgrwt>
<rscale>  1 0.30000000E+03</rscale>
<asrwt>0</asrwt>
<pdfrwt beam="1">  1       21 0.34161096E-02 0.30000000E+03</pdfrwt>
<pdfrwt beam="2">0</pdfrwt>
<totfact> 0.54796390E+04</totfact>
</mgrwt>
</event>
<event>
 6    1  0.1273846E-001  0.3000000E+03  0.7818608E-02  0.1093470E+00
         21   -1    0    0  501  502  0.00000000000E+00  0.00000000000E+00  0.23851450052E+01  0.23851450052E+01  0.00000000000E+00 0. -1.
         13   -1    0    0    0    0 -0.00000000000E+00 -0.00000000000E+00 -0.10000000000E+04  0.10000000000E+04  0.00000000000E+00 0.  1.
    9000005    2    1    2  501    0  0.20361541748E+02  0.43121059394E+02 -0.60482454833E+03  0.60671072941E+03  0.33401758739E+01 0.  0.
         13    1    3    3    0    0  0.46083978851E+01  0.79490417151E+01 -0.13057546491E+03  0.13089834465E+03  0.00000000000E+00 0.  1.
          1    1    3    3  501    0  0.15753143863E+02  0.35172017679E+02 -0.47424908342E+03  0.47581238476E+03  0.00000000000E+00 0.  1.
         -1    1    1    2    0  502 -0.20361541748E+02 -0.43121059394E+02 -0.39279030666E+03  0.39567441559E+03  0.00000000000E+00 0. -1.
<mgrwt>
<rscale>  1 0.30000000E+03</rscale>
<asrwt>0</asrwt>
<pdfrwt beam="1">  1       21 0.86732729E-02 0.30000000E+03</pdfrwt>
<pdfrwt beam="2">0</pdfrwt>
<totfact> 0.11079586E+04</totfact>
</mgrwt>
</event>
<event>
 6    1  0.1273846E-001  0.3000000E+03  0.7818608E-02  0.1093470E+00
         21   -1    0    0  501  502  0.00000000000E+00  0.00000000000E+00  0.22799308891E+01  0.22799308891E+01  0.00000000000E+00 0. -1.
         13   -1    0    0    0    0 -0.00000000000E+00 -0.00000000000E+00 -0.10000000000E+04  0.10000000000E+04  0.00000000000E+00 0.  1.
    9000005    2    1    2  501    0  0.23029653182E+02  0.23176883307E+02 -0.86411476107E+03  0.86473753313E+03  0.30245749297E+01 0.  0.
         13    1    3    3    0    0  0.83669538579E+00  0.90020542424E+00 -0.51380368845E+02  0.51395065245E+02  0.00000000000E+00 0.  1.
          3    1    3    3  501    0  0.22192957796E+02  0.22276677883E+02 -0.81273439223E+03  0.81334246788E+03  0.00000000000E+00 0.  1.
         -1    1    1    2    0  502 -0.23029653182E+02 -0.23176883307E+02 -0.13360530804E+03  0.13754239776E+03  0.00000000000E+00 0. -1.
<mgrwt>
<rscale>  1 0.30000000E+03</rscale>
<asrwt>0</asrwt>
<pdfrwt beam="1">  1       21 0.82906753E-02 0.30000000E+03</pdfrwt>
<pdfrwt beam="2">0</pdfrwt>
<totfact> 0.11996881E+04</totfact>
</mgrwt>
</event>
<event>
 6    1  0.1273846E-001  0.3000000E+03  0.7818608E-02  0.1093470E+00
         21   -1    0    0  501  502  0.00000000000E+00  0.00000000000E+00  0.74637840491E+01  0.74637840491E+01  0.00000000000E+00 0. -1.
         13   -1    0    0    0    0 -0.00000000000E+00 -0.00000000000E+00 -0.10000000000E+04  0.10000000000E+04  0.00000000000E+00 0.  1.
    9000005    2    1    2  501    0  0.59173071293E+02 -0.60348048567E+02 -0.60000764019E+03  0.60593916198E+03  0.31241659098E+01 0.  0.
         13    1    3    3    0    0  0.46371099712E+02 -0.49048884472E+02 -0.48059104573E+03  0.48530796943E+03  0.00000000000E+00 0.  1.
          1    1    3    3  501    0  0.12801971581E+02 -0.11299164095E+02 -0.11941659446E+03  0.12063119256E+03  0.00000000000E+00 0.  1.
         -1    1    1    2    0  502 -0.59173071293E+02  0.60348048567E+02 -0.39252857576E+03  0.40152462206E+03  0.00000000000E+00 0. -1.
<mgrwt>
<rscale>  1 0.30000000E+03</rscale>
<asrwt>0</asrwt>
<pdfrwt beam="1">  1       21 0.27141090E-01 0.30000000E+03</pdfrwt>
<pdfrwt beam="2">0</pdfrwt>
<totfact> 0.13267460E+03</totfact>
</mgrwt>
</event>
<event>
 6    1  0.1273846E-001  0.3000000E+03  0.7818608E-02  0.1093470E+00
         21   -1    0    0  501  502  0.00000000000E+00  0.00000000000E+00  0.34329998347E+01  0.34329998347E+01  0.00000000000E+00 0. -1.
         13   -1    0    0    0    0 -0.00000000000E+00 -0.00000000000E+00 -0.10000000000E+04  0.10000000000E+04  0.00000000000E+00 0.  1.
    9000005    2    1    2  501    0 -0.56004227390E+02  0.20563692980E+01 -0.63904497306E+03  0.64154530731E+03  0.78231444692E+01 0.  0.
         13    1    3    3    0    0 -0.51627128223E+02  0.10459309465E+01 -0.60605891008E+03  0.60825476310E+03  0.00000000000E+00 0.  1.
          3    1    3    3  501    0 -0.43770991672E+01  0.10104383515E+01 -0.32986062980E+02  0.33290544209E+02  0.00000000000E+00 0.  1.
         -1    1    1    2    0  502  0.56004227390E+02 -0.20563692980E+01 -0.35752202710E+03  0.36188769253E+03  0.00000000000E+00 0. -1.
<mgrwt>
<rscale>  1 0.30000000E+03</rscale>
<asrwt>0</asrwt>
<pdfrwt beam="1">  1       21 0.12483662E-01 0.30000000E+03</pdfrwt>
<pdfrwt beam="2">0</pdfrwt>
<totfact> 0.57674162E+03</totfact>
</mgrwt>
</event>
<event>
 6    1  0.1273846E-001  0.3000000E+03  0.7818608E-02  0.1093470E+00
         21   -1    0    0  501  502  0.00000000000E+00  0.00000000000E+00  0.93005839111E+00  0.93005839111E+00  0.00000000000E+00 0. -1.
         13   -1    0    0    0    0 -0.00000000000E+00 -0.00000000000E+00 -0.10000000000E+04  0.10000000000E+04  0.00000000000E+00 0.  1.
    9000005    2    1    2  501    0 -0.27342736807E+02 -0.12837718986E+02 -0.50299180852E+03  0.50393313042E+03  0.59504798724E+01 0.  0.
         13    1    3    3    0    0 -0.21085767844E+02 -0.70958829906E+01 -0.37614798596E+03  0.37680534564E+03  0.00000000000E+00 0.  1.
          3    1    3    3  501    0 -0.62569689629E+01 -0.57418359953E+01 -0.12684382257E+03  0.12712778479E+03  0.00000000000E+00 0.  1.
         -3    1    1    2    0  502  0.27342736807E+02  0.12837718986E+02 -0.49607813309E+03  0.49699692797E+03  0.00000000000E+00 0. -1.
<mgrwt>
<rscale>  1 0.30000000E+03</rscale>
<asrwt>0</asrwt>
<pdfrwt beam="1">  1       21 0.33820376E-02 0.30000000E+03</pdfrwt>
<pdfrwt beam="2">0</pdfrwt>
<totfact> 0.55722008E+04</totfact>
</mgrwt>
</event>
<event>
 6    1  0.1273846E-001  0.3000000E+03  0.7818608E-02  0.1093470E+00
         21   -1    0    0  501  502  0.00000000000E+00  0.00000000000E+00  0.11483770524E+01  0.11483770524E+01  0.00000000000E+00 0. -1.
         13   -1    0    0    0    0 -0.00000000000E+00 -0.00000000000E+00 -0.10000000000E+04  0.10000000000E+04  0.00000000000E+00 0.  1.
    9000005    2    1    2  501    0  0.16300004574E+02  0.28906278084E+02 -0.59504564964E+03  0.59598109414E+03  0.35883642231E+01 0.  0.
         13    1    3    3    0    0  0.10472253997E+02  0.21405262383E+02 -0.41031233101E+03  0.41100372546E+03  0.00000000000E+00 0.  1.
          3    1    3    3  501    0  0.58277505776E+01  0.75010157014E+01 -0.18473331863E+03  0.18497736869E+03  0.00000000000E+00 0.  1.
         -3    1    1    2    0  502 -0.16300004574E+02 -0.28906278084E+02 -0.40380597331E+03  0.40516728291E+03  0.00000000000E+00 0. -1.
<mgrwt>
<rscale>  1 0.30000000E+03</rscale>
<asrwt>0</asrwt>
<pdfrwt beam="1">  1       21 0.41759254E-02 0.30000000E+03</pdfrwt>
<pdfrwt beam="2">0</pdfrwt>
<totfact> 0.39104148E+04</totfact>
</mgrwt>
</event>
<event>
 6    1  0.1273846E-001  0.3000000E+03  0.7818608E-02  0.1093470E+00
         21   -1    0    0  501  502  0.00000000000E+00  0.00000000000E+00  0.30273784745E+01  0.30273784745E+01  0.00000000000E+00 0. -1.
         13   -1    0    0    0    0 -0.00000000000E+00 -0.00000000000E+00 -0.10000000000E+04  0.10000000000E+04  0.00000000000E+00 0.  1.
    9000005    2    1    2  501    0  0.37534884568E+02  0.25326654426E+02 -0.78305435771E+03  0.78436935649E+03  0.32944330916E+01 0.  0.
         13    1    3    3    0    0  0.13887876490E+02  0.81789410464E+01 -0.30003451461E+03  0.30046709994E+03  0.00000000000E+00 0.  1.
          1    1    3    3  501    0  0.23647008078E+02  0.17147713380E+02 -0.48301984310E+03  0.48390225655E+03  0.00000000000E+00 0.  1.
         -1    1    1    2    0  502 -0.37534884568E+02 -0.25326654426E+02 -0.21391826382E+03  0.21865802198E+03  0.00000000000E+00 0. -1.
<mgrwt>
<rscale>  1 0.30000000E+03</rscale>
<asrwt>0</asrwt>
<pdfrwt beam="1">  1       21 0.11008672E-01 0.30000000E+03</pdfrwt>
<pdfrwt beam="2">0</pdfrwt>
<totfact> 0.72417474E+03</totfact>
</mgrwt>
</event>
<event>
 6    1  0.1273846E-001  0.3000000E+03  0.7818608E-02  0.1093470E+00
         21   -1    0    0  501  502  0.00000000000E+00  0.00000000000E+00  0.57789109536E+01  0.57789109536E+01  0.00000000000E+00 0. -1.
         13   -1    0    0    0    0 -0.00000000000E+00 -0.00000000000E+00 -0.10000000000E+04  0.10000000000E+04  0.00000000000E+00 0.  1.
    9000005    2    1    2  501    0 -0.39560588853E+01  0.53263818538E+02 -0.85483452581E+03  0.85650969518E+03  0.37558822659E+01 0.  0.
         13    1    3    3    0    0 -0.12411217388E+01  0.31017973367E+02 -0.52053197863E+03  0.52145680150E+03  0.00000000000E+00 0.  1.
          1    1    3    3  501    0 -0.27149371466E+01  0.22245845171E+02 -0.33430254718E+03  0.33505289367E+03  0.00000000000E+00 0.  1.
         -1    1    1    2    0  502  0.39560588853E+01 -0.53263818538E+02 -0.13938656324E+03  0.14926921578E+03  0.00000000000E+00 0. -1.
<mgrwt>
<rscale>  1 0.30000000E+03</rscale>
<asrwt>0</asrwt>
<pdfrwt beam="1">  1       21 0.21014266E-01 0.30000000E+03</pdfrwt>
<pdfrwt beam="2">0</pdfrwt>
<totfact> 0.21825796E+03</totfact>
</mgrwt>
</event>
<event>
 6    1  0.1273846E-001  0.3000000E+03  0.7818608E-02  0.1093470E+00
         21   -1    0    0  501  502  0.00000000000E+00  0.00000000000E+00  0.15331878166E+01  0.15331878166E+01  0.00000000000E+00 0. -1.
         13   -1    0    0    0    0 -0.00000000000E+00 -0.00000000000E+00 -0.10000000000E+04  0.10000000000E+04  0.00000000000E+00 0.  1.
    9000005    2    1    2  501    0  0.34479464967E+02 -0.77887991099E+00 -0.73532696586E+03  0.73614287360E+03  0.33381834753E+01 0.  0.
         13    1    3    3    0    0  0.26052786449E+02  0.11620602079E-01 -0.58134058970E+03  0.58192407498E+03  0.00000000000E+00 0.  1.
          1    1    3    3  501    0  0.84266785171E+01 -0.79050051307E+00 -0.15398637617E+03  0.15421879862E+03  0.00000000000E+00 0.  1.
         -3    1    1    2    0  502 -0.34479464967E+02  0.77887991099E+00 -0.26313984632E+03  0.26539031422E+03  0.00000000000E+00 0. -1.
<mgrwt>
<rscale>  1 0.30000000E+03</rscale>
<asrwt>0</asrwt>
<pdfrwt beam="1">  1       21 0.55752402E-02 0.30000000E+03</pdfrwt>
<pdfrwt beam="2">0</pdfrwt>
<totfact> 0.23910261E+04</totfact>
</mgrwt>
</event>
<event>
 6    1  0.1273846E-001  0.3000000E+03  0.7818608E-02  0.1093470E+00
         21   -1    0    0  501  502  0.00000000000E+00  0.00000000000E+00  0.27118283525E+01  0.27118283525E+01  0.00000000000E+00 0. -1.
         13   -1    0    0    0    0 -0.00000000000E+00 -0.00000000000E+00 -0.10000000000E+04  0.10000000000E+04  0.00000000000E+00 0.  1.
    9000005    2    1    2  501    0  0.38126160741E+02 -0.13337827856E+02 -0.81469178308E+03  0.81570128613E+03  0.37927549387E+01 0.  0.
         13    1    3    3    0    0  0.30627001536E+02 -0.11980047501E+02 -0.64304462674E+03  0.64388502603E+03  0.00000000000E+00 0.  1.
          1    1    3    3  501    0  0.74991592044E+01 -0.13577803547E+01 -0.17164715634E+03  0.17181626010E+03  0.00000000000E+00 0.  1.
         -1    1    1    2    0  502 -0.38126160741E+02  0.13337827856E+02 -0.18259638857E+03  0.18701054222E+03  0.00000000000E+00 0. -1.
<mgrwt>
<rscale>  1 0.30000000E+03</rscale>
<asrwt>0</asrwt>
<pdfrwt beam="1">  1       21 0.98612148E-02 0.30000000E+03</pdfrwt>
<pdfrwt beam="2">0</pdfrwt>
<totfact> 0.88206547E+03</totfact>
</mgrwt>
</event>
<event>
 6    1  0.1273846E-001  0.3000000E+03  0.7818608E-02  0.1093470E+00
         21   -1    0    0  501  502  0.00000000000E+00  0.00000000000E+00  0.12919599334E+01  0.12919599334E+01  0.00000000000E+00 0. -1.
         13   -1    0    0    0    0 -0.00000000000E+00 -0.00000000000E+00 -0.10000000000E+04  0.10000000000E+04  0.00000000000E+00 0.  1.
    9000005    2    1    2  501    0 -0.29182091855E+02  0.13059625472E+02 -0.72700882026E+03  0.72771817766E+03  0.31261896784E+01 0.  0.
         13    1    3    3    0    0 -0.25634752930E+02  0.12270207093E+02 -0.62816766897E+03  0.62881024076E+03  0.00000000000E+00 0.  1.
          3    1    3    3  501    0 -0.35473389249E+01  0.78941837935E+00 -0.98841151290E+02  0.98907936907E+02  0.00000000000E+00 0.  1.
         -1    1    1    2    0  502  0.29182091855E+02 -0.13059625472E+02 -0.27169921981E+03  0.27357378227E+03  0.00000000000E+00 0. -1.
<mgrwt>
<rscale>  1 0.30000000E+03</rscale>
<asrwt>0</asrwt>
<pdfrwt beam="1">  1       21 0.46980460E-02 0.30000000E+03</pdfrwt>
<pdfrwt beam="2">0</pdfrwt>
<totfact> 0.32026968E+04</totfact>
</mgrwt>
</event>
<event>
 6    1  0.1273846E-001  0.3000000E+03  0.7818608E-02  0.1093470E+00
         21   -1    0    0  501  502  0.00000000000E+00  0.00000000000E+00  0.23110106579E+01  0.23110106579E+01  0.00000000000E+00 0. -1.
         13   -1    0    0    0    0 -0.00000000000E+00 -0.00000000000E+00 -0.10000000000E+04  0.10000000000E+04  0.00000000000E+00 0.  1.
    9000005    2    1    2  501    0  0.28134943545E+02  0.23121556719E+02 -0.82561518095E+03  0.82642588630E+03  0.36245151236E+01 0.  0.
         13    1    3    3    0    0  0.14556611428E+02  0.11331164252E+02 -0.37860875038E+03  0.37905787960E+03  0.00000000000E+00 0.  1.
          1    1    3    3  501    0  0.13578332117E+02  0.11790392467E+02 -0.44700643057E+03  0.44736800671E+03  0.00000000000E+00 0.  1.
         -3    1    1    2    0  502 -0.28134943545E+02 -0.23121556719E+02 -0.17207380839E+03  0.17588512435E+03  0.00000000000E+00 0. -1.
<mgrwt>
<rscale>  1 0.30000000E+03</rscale>
<asrwt>0</asrwt>
<pdfrwt beam="1">  1       21 0.84036928E-02 0.30000000E+03</pdfrwt>
<pdfrwt beam="2">0</pdfrwt>
<totfact> 0.11714197E+04</totfact>
</mgrwt>
</event>
<event>
 6    1  0.1273846E-001  0.3000000E+03  0.7818608E-02  0.1093470E+00
         21   -1    0    0  501  502  0.00000000000E+00  0.00000000000E+00  0.13324966073E+02  0.13324966073E+02  0.00000000000E+00 0. -1.
         13   -1    0    0    0    0 -0.00000000000E+00 -0.00000000000E+00 -0.10000000000E+04  0.10000000000E+04  0.00000000000E+00 0.  1.
    9000005    2    1    2  501    0  0.48511893637E+02  0.60660350267E+02 -0.86809770170E+03  0.87157283862E+03  0.35371469387E+01 0.  0.
         13    1    3    3    0    0  0.48571145945E+02  0.60578457880E+02 -0.86730497078E+03  0.87077368939E+03  0.00000000000E+00 0.  1.
          3    1    3    3  501    0 -0.59252308485E-01  0.81892386852E-01 -0.79273091735E+00  0.79914923914E+00  0.00000000000E+00 0.  1.
         -3    1    1    2    0  502 -0.48511893637E+02 -0.60660350267E+02 -0.11857733222E+03  0.14175212745E+03  0.00000000000E+00 0. -1.
<mgrwt>
<rscale>  1 0.30000000E+03</rscale>
<asrwt>0</asrwt>
<pdfrwt beam="1">  1       21 0.48454524E-01 0.30000000E+03</pdfrwt>
<pdfrwt beam="2">0</pdfrwt>
<totfact> 0.40210363E+02</totfact>
</mgrwt>
</event>
<event>
 6    1  0.1273846E-001  0.3000000E+03  0.7818608E-02  0.1093470E+00
         21   -1    0    0  501  502  0.00000000000E+00  0.00000000000E+00  0.19684028897E+01  0.19684028897E+01  0.00000000000E+00 0. -1.
         13   -1    0    0    0    0 -0.00000000000E+00 -0.00000000000E+00 -0.10000000000E+04  0.10000000000E+04  0.00000000000E+00 0.  1.
    9000005    2    1    2  501    0 -0.22066034120E+02  0.35462207057E+02 -0.33425387163E+03  0.33687792270E+03  0.40750599986E+01 0.  0.
         13    1    3    3    0    0 -0.18005065260E+02  0.28616452877E+02 -0.25678009233E+03  0.25899633119E+03  0.00000000000E+00 0.  1.
          1    1    3    3  501    0 -0.40609688598E+01  0.68457541797E+01 -0.77473779296E+02  0.77881591514E+02  0.00000000000E+00 0.  1.
         -1    1    1    2    0  502  0.22066034120E+02 -0.35462207057E+02 -0.66377772548E+03  0.66509048019E+03  0.00000000000E+00 0. -1.
<mgrwt>
<rscale>  1 0.30000000E+03</rscale>
<asrwt>0</asrwt>
<pdfrwt beam="1">  1       21 0.71578438E-02 0.30000000E+03</pdfrwt>
<pdfrwt beam="2">0</pdfrwt>
<totfact> 0.15520558E+04</totfact>
</mgrwt>
</event>
<event>
 6    1  0.1273846E-001  0.3000000E+03  0.7818608E-02  0.1093470E+00
         21   -1    0    0  501  502  0.00000000000E+00  0.00000000000E+00  0.16399877607E+01  0.16399877607E+01  0.00000000000E+00 0. -1.
         13   -1    0    0    0    0 -0.00000000000E+00 -0.00000000000E+00 -0.10000000000E+04  0.10000000000E+04  0.00000000000E+00 0.  1.
    9000005    2    1    2  501    0  0.10271012691E+02  0.28282264671E+02 -0.83419626039E+03  0.83474146285E+03  0.21280867620E+01 0.  0.
         13    1    3    3    0    0  0.98026699122E+01  0.25071257061E+02 -0.74351175484E+03  0.74399891791E+03  0.00000000000E+00 0.  1.
          1    1    3    3  501    0  0.46834277880E+00  0.32110076104E+01 -0.90684505548E+02  0.90742544935E+02  0.00000000000E+00 0.  1.
         -1    1    1    2    0  502 -0.10271012691E+02 -0.28282264671E+02 -0.16416375185E+03  0.16689852492E+03  0.00000000000E+00 0. -1.
<mgrwt>
<rscale>  1 0.30000000E+03</rscale>
<asrwt>0</asrwt>
<pdfrwt beam="1">  1       21 0.59636044E-02 0.30000000E+03</pdfrwt>
<pdfrwt beam="2">0</pdfrwt>
<totfact> 0.21293916E+04</totfact>
</mgrwt>
</event>
<event>
 6    1  0.1273846E-001  0.3000000E+03  0.7818608E-02  0.1093470E+00
         21   -1    0    0  501  502  0.00000000000E+00  0.00000000000E+00  0.14259682844E+02  0.14259682844E+02  0.00000000000E+00 0. -1.
         13   -1    0    0    0    0 -0.00000000000E+00 -0.00000000000E+00 -0.10000000000E+04  0.10000000000E+04  0.00000000000E+00 0.  1.
    9000005    2    1    2  501    0 -0.39641483398E+02  0.28545401151E+02 -0.95551347129E+03  0.95681449729E+03  0.10084704426E+02 0.  0.
         13    1    3    3    0    0 -0.33868481199E+02  0.27824518402E+02 -0.86987045432E+03  0.87097410130E+03  0.00000000000E+00 0.  1.
          3    1    3    3  501    0 -0.57730021987E+01  0.72088274940E+00 -0.85643016976E+02  0.85840395986E+02  0.00000000000E+00 0.  1.
         -3    1    1    2    0  502  0.39641483398E+02 -0.28545401151E+02 -0.30226845862E+02  0.57445185557E+02  0.00000000000E+00 0. -1.
<mgrwt>
<rscale>  1 0.30000000E+03</rscale>
<asrwt>0</asrwt>
<pdfrwt beam="1">  1       21 0.51853502E-01 0.30000000E+03</pdfrwt>
<pdfrwt beam="2">0</pdfrwt>
<totfact> 0.34710596E+02</totfact>
</mgrwt>
</event>
<event>
 6    1  0.1273846E-001  0.3000000E+03  0.7818608E-02  0.1093470E+00
         21   -1    0    0  501  502  0.00000000000E+00  0.00000000000E+00  0.11374693853E+01  0.11374693853E+01  0.00000000000E+00 0. -1.
         13   -1    0    0    0    0 -0.00000000000E+00 -0.00000000000E+00 -0.10000000000E+04  0.10000000000E+04  0.00000000000E+00 0.  1.
    9000005    2    1    2  501    0  0.22611321687E+02  0.19848687787E+02 -0.72433095670E+03  0.72496211323E+03  0.30803407772E+01 0.  0.
         13    1    3    3    0    0  0.92968507101E+01  0.81602467097E+01 -0.26213499272E+03  0.26242670494E+03  0.00000000000E+00 0.  1.
          3    1    3    3  501    0  0.13314470977E+02  0.11688441077E+02 -0.46219596399E+03  0.46253540828E+03  0.00000000000E+00 0.  1.
         -1    1    1    2    0  502 -0.22611321687E+02 -0.19848687787E+02 -0.27453157391E+03  0.27617535616E+03  0.00000000000E+00 0. -1.
<mgrwt>
<rscale>  1 0.30000000E+03</rscale>
<asrwt>0</asrwt>
<pdfrwt beam="1">  1       21 0.41362610E-02 0.30000000E+03</pdfrwt>
<pdfrwt beam="2">0</pdfrwt>
<totfact> 0.39739045E+04</totfact>
</mgrwt>
</event>
<event>
 6    1  0.1273846E-001  0.3000000E+03  0.7818608E-02  0.1093470E+00
         21   -1    0    0  501  502  0.00000000000E+00  0.00000000000E+00  0.96508678371E+00  0.96508678371E+00  0.00000000000E+00 0. -1.
         13   -1    0    0    0    0 -0.00000000000E+00 -0.00000000000E+00 -0.10000000000E+04  0.10000000000E+04  0.00000000000E+00 0.  1.
    9000005    2    1    2  501    0  0.14956064784E+01  0.30903227877E+02 -0.51588903055E+03  0.51682957862E+03  0.37516873647E+01 0.  0.
         13    1    3    3    0    0  0.27136327405E+01  0.21808044148E+02 -0.37075073897E+03  0.37140148766E+03  0.00000000000E+00 0.  1.
          1    1    3    3  501    0 -0.12180262621E+01  0.90951837292E+01 -0.14513829158E+03  0.14542809096E+03  0.00000000000E+00 0.  1.
         -3    1    1    2    0  502 -0.14956064784E+01 -0.30903227877E+02 -0.48314588267E+03  0.48413550817E+03  0.00000000000E+00 0. -1.
<mgrwt>
<rscale>  1 0.30000000E+03</rscale>
<asrwt>0</asrwt>
<pdfrwt beam="1">  1       21 0.35094139E-02 0.30000000E+03</pdfrwt>
<pdfrwt beam="2">0</pdfrwt>
<totfact> 0.52380659E+04</totfact>
</mgrwt>
</event>
<event>
 6    1  0.1273846E-001  0.3000000E+03  0.7818608E-02  0.1093470E+00
         21   -1    0    0  501  502  0.00000000000E+00  0.00000000000E+00  0.17033041618E+01  0.17033041618E+01  0.00000000000E+00 0. -1.
         13   -1    0    0    0    0 -0.00000000000E+00 -0.00000000000E+00 -0.10000000000E+04  0.10000000000E+04  0.00000000000E+00 0.  1.
    9000005    2    1    2  501    0 -0.34503505961E+02 -0.72047727071E+01 -0.75874370901E+03  0.75957103830E+03  0.37075042461E+01 0.  0.
         13    1    3    3    0    0 -0.31852503545E+02 -0.57080252190E+01 -0.68296150566E+03  0.68372771024E+03  0.00000000000E+00 0.  1.
          3    1    3    3  501    0 -0.26510024154E+01 -0.14967474881E+01 -0.75782203347E+02  0.75843328059E+02  0.00000000000E+00 0.  1.
         -1    1    1    2    0  502  0.34503505961E+02  0.72047727071E+01 -0.23955298683E+03  0.24213226586E+03  0.00000000000E+00 0. -1.
<mgrwt>
<rscale>  1 0.30000000E+03</rscale>
<asrwt>0</asrwt>
<pdfrwt beam="1">  1       21 0.61938464E-02 0.30000000E+03</pdfrwt>
<pdfrwt beam="2">0</pdfrwt>
<totfact> 0.19946519E+04</totfact>
</mgrwt>
</event>
<event>
 6    1  0.1273846E-001  0.3000000E+03  0.7818608E-02  0.1093470E+00
         21   -1    0    0  501  502  0.00000000000E+00  0.00000000000E+00  0.17210973272E+01  0.17210973272E+01  0.00000000000E+00 0. -1.
         13   -1    0    0    0    0 -0.00000000000E+00 -0.00000000000E+00 -0.10000000000E+04  0.10000000000E+04  0.00000000000E+00 0.  1.
    9000005    2    1    2  501    0  0.12671439814E+02  0.39373902700E+02 -0.47025131156E+03  0.47207592689E+03  0.29180671104E+01 0.  0.
         13    1    3    3    0    0  0.20203040066E+01  0.10188541750E+02 -0.11330973314E+03  0.11378481285E+03  0.00000000000E+00 0.  1.
          1    1    3    3  501    0  0.10651135808E+02  0.29185360950E+02 -0.35694157842E+03  0.35829111403E+03  0.00000000000E+00 0.  1.
         -1    1    1    2    0  502 -0.12671439814E+02 -0.39373902700E+02 -0.52802759111E+03  0.52964517044E+03  0.00000000000E+00 0. -1.
<mgrwt>
<rscale>  1 0.30000000E+03</rscale>
<asrwt>0</asrwt>
<pdfrwt beam="1">  1       21 0.62585489E-02 0.30000000E+03</pdfrwt>
<pdfrwt beam="2">0</pdfrwt>
<totfact> 0.19591642E+04</totfact>
</mgrwt>
</event>
<event>
 6    1  0.1273846E-001  0.3000000E+03  0.7818608E-02  0.1093470E+00
         21   -1    0    0  501  502  0.00000000000E+00  0.00000000000E+00  0.10091331796E+01  0.10091331796E+01  0.00000000000E+00 0. -1.
         13   -1    0    0    0    0 -0.00000000000E+00 -0.00000000000E+00 -0.10000000000E+04  0.10000000000E+04  0.00000000000E+00 0.  1.
    9000005    2    1    2  501    0 -0.30828185952E+02 -0.30618328223E+01 -0.59561748048E+03  0.59644783909E+03  0.54854197585E+01 0.  0.
         13    1    3    3    0    0 -0.29551963032E+02 -0.17089983519E+01 -0.55953000526E+03  0.56031247173E+03  0.00000000000E+00 0.  1.
          3    1    3    3  501    0 -0.12762229205E+01 -0.13528344703E+01 -0.36087475225E+02  0.36135367359E+02  0.00000000000E+00 0.  1.
         -3    1    1    2    0  502  0.30828185952E+02  0.30618328223E+01 -0.40337338634E+03  0.40456129409E+03  0.00000000000E+00 0. -1.
<mgrwt>
<rscale>  1 0.30000000E+03</rscale>
<asrwt>0</asrwt>
<pdfrwt beam="1">  1       21 0.36695829E-02 0.30000000E+03</pdfrwt>
<pdfrwt beam="2">0</pdfrwt>
<totfact> 0.48604127E+04</totfact>
</mgrwt>
</event>
<event>
 6    1  0.1273846E-001  0.3000000E+03  0.7818608E-02  0.1093470E+00
         21   -1    0    0  501  502  0.00000000000E+00  0.00000000000E+00  0.55382264770E+01  0.55382264770E+01  0.00000000000E+00 0. -1.
         13   -1    0    0    0    0 -0.00000000000E+00 -0.00000000000E+00 -0.10000000000E+04  0.10000000000E+04  0.00000000000E+00 0.  1.
    9000005    2    1    2  501    0 -0.30945659493E+02 -0.32895434226E+02 -0.89676428159E+03  0.89790670989E+03  0.32464568216E+01 0.  0.
         13    1    3    3    0    0 -0.15295379749E+02 -0.14519235010E+02 -0.39649503197E+03  0.39705549638E+03  0.00000000000E+00 0.  1.
          3    1    3    3  501    0 -0.15650279744E+02 -0.18376199216E+02 -0.50026924962E+03  0.50085121351E+03  0.00000000000E+00 0.  1.
         -1    1    1    2    0  502  0.30945659493E+02  0.32895434226E+02 -0.97697491928E+02  0.10763151659E+03  0.00000000000E+00 0. -1.
<mgrwt>
<rscale>  1 0.30000000E+03</rscale>
<asrwt>0</asrwt>
<pdfrwt beam="1">  1       21 0.20139048E-01 0.30000000E+03</pdfrwt>
<pdfrwt beam="2">0</pdfrwt>
<totfact> 0.23676858E+03</totfact>
</mgrwt>
</event>
<event>
 6    1  0.1273846E-001  0.3000000E+03  0.7818608E-02  0.1093470E+00
         21   -1    0    0  501  502  0.00000000000E+00  0.00000000000E+00  0.50520221042E+01  0.50520221042E+01  0.00000000000E+00 0. -1.
         13   -1    0    0    0    0 -0.00000000000E+00 -0.00000000000E+00 -0.10000000000E+04  0.10000000000E+04  0.00000000000E+00 0.  1.
    9000005    2    1    2  501    0  0.50570634262E+02  0.14183665506E+02 -0.83585464809E+03  0.83751321166E+03  0.41014085709E+01 0.  0.
         13    1    3    3    0    0  0.45328207095E+02  0.12199244309E+02 -0.76360228139E+03  0.76504373212E+03  0.00000000000E+00 0.  1.
          3    1    3    3  501    0  0.52424271663E+01  0.19844211966E+01 -0.72252366707E+02  0.72469479540E+02  0.00000000000E+00 0.  1.
         -1    1    1    2    0  502 -0.50570634262E+02 -0.14183665506E+02 -0.15909332980E+03  0.16753881044E+03  0.00000000000E+00 0. -1.
<mgrwt>
<rscale>  1 0.30000000E+03</rscale>
<asrwt>0</asrwt>
<pdfrwt beam="1">  1       21 0.18371028E-01 0.30000000E+03</pdfrwt>
<pdfrwt beam="2">0</pdfrwt>
<totfact> 0.28189912E+03</totfact>
</mgrwt>
</event>
<event>
 6    1  0.1273846E-001  0.3000000E+03  0.7818608E-02  0.1093470E+00
         21   -1    0    0  501  502  0.00000000000E+00  0.00000000000E+00  0.29035211451E+01  0.29035211451E+01  0.00000000000E+00 0. -1.
         13   -1    0    0    0    0 -0.00000000000E+00 -0.00000000000E+00 -0.10000000000E+04  0.10000000000E+04  0.00000000000E+00 0.  1.
    9000005    2    1    2  501    0 -0.44038092693E+02  0.10512551175E+02 -0.77011179668E+03  0.77144744911E+03  0.30199356385E+01 0.  0.
         13    1    3    3    0    0 -0.28855032787E+02  0.59553937531E+01 -0.48138395658E+03  0.48228476369E+03  0.00000000000E+00 0.  1.
          1    1    3    3  501    0 -0.15183059905E+02  0.45571574215E+01 -0.28872784010E+03  0.28916268542E+03  0.00000000000E+00 0.  1.
         -1    1    1    2    0  502  0.44038092693E+02 -0.10512551175E+02 -0.22698468217E+03  0.23145607203E+03  0.00000000000E+00 0. -1.
<mgrwt>
<rscale>  1 0.30000000E+03</rscale>
<asrwt>0</asrwt>
<pdfrwt beam="1">  1       21 0.10558281E-01 0.30000000E+03</pdfrwt>
<pdfrwt beam="2">0</pdfrwt>
<totfact> 0.78060145E+03</totfact>
</mgrwt>
</event>
<event>
 6    1  0.1273846E-001  0.3000000E+03  0.7818608E-02  0.1093470E+00
         21   -1    0    0  501  502  0.00000000000E+00  0.00000000000E+00  0.28027505984E+01  0.28027505984E+01  0.00000000000E+00 0. -1.
         13   -1    0    0    0    0 -0.00000000000E+00 -0.00000000000E+00 -0.10000000000E+04  0.10000000000E+04  0.00000000000E+00 0.  1.
    9000005    2    1    2  501    0 -0.51975451150E+02  0.69101258073E+01 -0.56413068103E+03  0.56657362502E+03  0.36124685557E+01 0.  0.
         13    1    3    3    0    0 -0.87869525159E+01  0.39385565485E+00 -0.10713600693E+03  0.10749646338E+03  0.00000000000E+00 0.  1.
          1    1    3    3  501    0 -0.43188498635E+02  0.65162701524E+01 -0.45699467410E+03  0.45907716165E+03  0.00000000000E+00 0.  1.
         -1    1    1    2    0  502  0.51975451150E+02 -0.69101258073E+01 -0.43306656837E+03  0.43622912558E+03  0.00000000000E+00 0. -1.
<mgrwt>
<rscale>  1 0.30000000E+03</rscale>
<asrwt>0</asrwt>
<pdfrwt beam="1">  1       21 0.10191842E-01 0.30000000E+03</pdfrwt>
<pdfrwt beam="2">0</pdfrwt>
<totfact> 0.83158217E+03</totfact>
</mgrwt>
</event>
<event>
 6    1  0.1273846E-001  0.3000000E+03  0.7818608E-02  0.1093470E+00
         21   -1    0    0  501  502  0.00000000000E+00  0.00000000000E+00  0.14361005082E+02  0.14361005082E+02  0.00000000000E+00 0. -1.
         13   -1    0    0    0    0 -0.00000000000E+00 -0.00000000000E+00 -0.10000000000E+04  0.10000000000E+04  0.00000000000E+00 0.  1.
    9000005    2    1    2  501    0 -0.85039011738E+02 -0.25125716379E+02 -0.83393365529E+03  0.83864121333E+03  0.32875723913E+01 0.  0.
         13    1    3    3    0    0 -0.20819009344E+02 -0.60087910970E+01 -0.21736675018E+03  0.21844413657E+03  0.00000000000E+00 0.  1.
          3    1    3    3  501    0 -0.64220002394E+02 -0.19116925282E+02 -0.61656690511E+03  0.62019707676E+03  0.00000000000E+00 0.  1.
         -1    1    1    2    0  502  0.85039011738E+02  0.25125716379E+02 -0.15170533963E+03  0.17571979175E+03  0.00000000000E+00 0. -1.
<mgrwt>
<rscale>  1 0.30000000E+03</rscale>
<asrwt>0</asrwt>
<pdfrwt beam="1">  1       21 0.52221947E-01 0.30000000E+03</pdfrwt>
<pdfrwt beam="2">0</pdfrwt>
<totfact> 0.34177115E+02</totfact>
</mgrwt>
</event>
<event>
 6    1  0.1273846E-001  0.3000000E+03  0.7818608E-02  0.1093470E+00
         21   -1    0    0  501  502  0.00000000000E+00  0.00000000000E+00  0.44294157146E+01  0.44294157146E+01  0.00000000000E+00 0. -1.
         13   -1    0    0    0    0 -0.00000000000E+00 -0.00000000000E+00 -0.10000000000E+04  0.10000000000E+04  0.00000000000E+00 0.  1.
    9000005    2    1    2  501    0 -0.48116156663E+02  0.92664195917E+01 -0.83746965249E+03  0.83890921846E+03  0.34967005039E+01 0.  0.
         13    1    3    3    0    0 -0.13265527920E+02  0.10607412008E+01 -0.21831798793E+03  0.21872321151E+03  0.00000000000E+00 0.  1.
          3    1    3    3  501    0 -0.34850628743E+02  0.82056783909E+01 -0.61915166456E+03  0.62018600694E+03  0.00000000000E+00 0.  1.
         -1    1    1    2    0  502  0.48116156663E+02 -0.92664195917E+01 -0.15810093180E+03  0.16552019726E+03  0.00000000000E+00 0. -1.
<mgrwt>
<rscale>  1 0.30000000E+03</rscale>
<asrwt>0</asrwt>
<pdfrwt beam="1">  1       21 0.16107000E-01 0.30000000E+03</pdfrwt>
<pdfrwt beam="2">0</pdfrwt>
<totfact> 0.36075557E+03</totfact>
</mgrwt>
</event>
<event>
 6    1  0.1273846E-001  0.3000000E+03  0.7818608E-02  0.1093470E+00
         21   -1    0    0  501  502  0.00000000000E+00  0.00000000000E+00  0.19945058941E+01  0.19945058941E+01  0.00000000000E+00 0. -1.
         13   -1    0    0    0    0 -0.00000000000E+00 -0.00000000000E+00 -0.10000000000E+04  0.10000000000E+04  0.00000000000E+00 0.  1.
    9000005    2    1    2  501    0  0.15631196645E+02  0.38777908826E+02 -0.67408835409E+03  0.67539019772E+03  0.29579614414E+01 0.  0.
         13    1    3    3    0    0  0.11247739184E+02  0.31060284835E+02 -0.53537276908E+03  0.53639095332E+03  0.00000000000E+00 0.  1.
          1    1    3    3  501    0  0.43834574607E+01  0.77176239912E+01 -0.13871558501E+03  0.13899924440E+03  0.00000000000E+00 0.  1.
         -1    1    1    2    0  502 -0.15631196645E+02 -0.38777908826E+02 -0.32391714002E+03  0.32660430817E+03  0.00000000000E+00 0. -1.
<mgrwt>
<rscale>  1 0.30000000E+03</rscale>
<asrwt>0</asrwt>
<pdfrwt beam="1">  1       21 0.72527640E-02 0.30000000E+03</pdfrwt>
<pdfrwt beam="2">0</pdfrwt>
<totfact> 0.15167905E+04</totfact>
</mgrwt>
</event>
<event>
 6    1  0.1273846E-001  0.3000000E+03  0.7818608E-02  0.1093470E+00
         21   -1    0    0  501  502  0.00000000000E+00  0.00000000000E+00  0.18842213920E+01  0.18842213920E+01  0.00000000000E+00 0. -1.
         13   -1    0    0    0    0 -0.00000000000E+00 -0.00000000000E+00 -0.10000000000E+04  0.10000000000E+04  0.00000000000E+00 0.  1.
    9000005    2    1    2  501    0  0.23175666177E+02  0.24758093374E+02 -0.81130204449E+03  0.81201730498E+03  0.33198665408E+01 0.  0.
         13    1    3    3    0    0  0.65693239940E+01  0.67807551841E+01 -0.19224718225E+03  0.19247886570E+03  0.00000000000E+00 0.  1.
          3    1    3    3  501    0  0.16606342183E+02  0.17977338189E+02 -0.61905486224E+03  0.61953843928E+03  0.00000000000E+00 0.  1.
         -1    1    1    2    0  502 -0.23175666177E+02 -0.24758093374E+02 -0.18681373412E+03  0.18986691641E+03  0.00000000000E+00 0. -1.
<mgrwt>
<rscale>  1 0.30000000E+03</rscale>
<asrwt>0</asrwt>
<pdfrwt beam="1">  1       21 0.68517286E-02 0.30000000E+03</pdfrwt>
<pdfrwt beam="2">0</pdfrwt>
<totfact> 0.16747288E+04</totfact>
</mgrwt>
</event>
<event>
 6    1  0.1273846E-001  0.3000000E+03  0.7818608E-02  0.1093470E+00
         21   -1    0    0  501  502  0.00000000000E+00  0.00000000000E+00  0.17228852969E+01  0.17228852969E+01  0.00000000000E+00 0. -1.
         13   -1    0    0    0    0 -0.00000000000E+00 -0.00000000000E+00 -0.10000000000E+04  0.10000000000E+04  0.00000000000E+00 0.  1.
    9000005    2    1    2  501    0  0.40724236488E+02  0.72032999925E+01 -0.46840265011E+03  0.47023695021E+03  0.33757582257E+01 0.  0.
         13    1    3    3    0    0  0.26199694150E+02  0.41533453395E+01 -0.28240577647E+03  0.28364889711E+03  0.00000000000E+00 0.  1.
          1    1    3    3  501    0  0.14524542338E+02  0.30499546530E+01 -0.18599687365E+03  0.18658805310E+03  0.00000000000E+00 0.  1.
         -1    1    1    2    0  502 -0.40724236488E+02 -0.72032999925E+01 -0.52987446459E+03  0.53148593509E+03  0.00000000000E+00 0. -1.
<mgrwt>
<rscale>  1 0.30000000E+03</rscale>
<asrwt>0</asrwt>
<pdfrwt beam="1">  1       21 0.62650507E-02 0.30000000E+03</pdfrwt>
<pdfrwt beam="2">0</pdfrwt>
<totfact> 0.19556524E+04</totfact>
</mgrwt>
</event>
<event>
 6    1  0.1273846E-001  0.3000000E+03  0.7818608E-02  0.1093470E+00
         21   -1    0    0  501  502  0.00000000000E+00  0.00000000000E+00  0.41938931946E+01  0.41938931946E+01  0.00000000000E+00 0. -1.
         13   -1    0    0    0    0 -0.00000000000E+00 -0.00000000000E+00 -0.10000000000E+04  0.10000000000E+04  0.00000000000E+00 0.  1.
    9000005    2    1    2  501    0  0.55075947389E+02 -0.33972381452E+02 -0.50320057962E+03  0.50735620532E+03  0.34659863100E+01 0.  0.
         13    1    3    3    0    0  0.88928706646E+01 -0.65405361811E+01 -0.93428427129E+02  0.94078333095E+02  0.00000000000E+00 0.  1.
          3    1    3    3  501    0  0.46183076724E+02 -0.27431845271E+02 -0.40977215249E+03  0.41327787222E+03  0.00000000000E+00 0.  1.
         -3    1    1    2    0  502 -0.55075947389E+02  0.33972381452E+02 -0.49260552718E+03  0.49683768788E+03  0.00000000000E+00 0. -1.
<mgrwt>
<rscale>  1 0.30000000E+03</rscale>
<asrwt>0</asrwt>
<pdfrwt beam="1">  1       21 0.15250553E-01 0.30000000E+03</pdfrwt>
<pdfrwt beam="2">0</pdfrwt>
<totfact> 0.39935651E+03</totfact>
</mgrwt>
</event>
<event>
 6    1  0.1273846E-001  0.3000000E+03  0.7818608E-02  0.1093470E+00
         21   -1    0    0  501  502  0.00000000000E+00  0.00000000000E+00  0.52496878707E+01  0.52496878707E+01  0.00000000000E+00 0. -1.
         13   -1    0    0    0    0 -0.00000000000E+00 -0.00000000000E+00 -0.10000000000E+04  0.10000000000E+04  0.00000000000E+00 0.  1.
    9000005    2    1    2  501    0  0.77760424885E+01  0.33134193696E+02 -0.94104873351E+03  0.94167138044E+03  0.37320616846E+01 0.  0.
         13    1    3    3    0    0  0.73135074745E+01  0.31860516606E+02 -0.87850745886E+03  0.87911542768E+03  0.00000000000E+00 0.  1.
          3    1    3    3  501    0  0.46253501395E+00  0.12736770903E+01 -0.62541274643E+02  0.62555952761E+02  0.00000000000E+00 0.  1.
         -1    1    1    2    0  502 -0.77760424885E+01 -0.33134193696E+02 -0.53701578624E+02  0.63578307428E+02  0.00000000000E+00 0. -1.
<mgrwt>
<rscale>  1 0.30000000E+03</rscale>
<asrwt>0</asrwt>
<pdfrwt beam="1">  1       21 0.19089814E-01 0.30000000E+03</pdfrwt>
<pdfrwt beam="2">0</pdfrwt>
<totfact> 0.26215437E+03</totfact>
</mgrwt>
</event>
<event>
 6    1  0.1273846E-001  0.3000000E+03  0.7818608E-02  0.1093470E+00
         21   -1    0    0  501  502  0.00000000000E+00  0.00000000000E+00  0.11789218362E+01  0.11789218362E+01  0.00000000000E+00 0. -1.
         13   -1    0    0    0    0 -0.00000000000E+00 -0.00000000000E+00 -0.10000000000E+04  0.10000000000E+04  0.00000000000E+00 0.  1.
    9000005    2    1    2  501    0 -0.17840476108E+02 -0.25488613228E+02 -0.70954073760E+03  0.71023035691E+03  0.33390986595E+01 0.  0.
         13    1    3    3    0    0 -0.76735807401E+01 -0.11398302963E+02 -0.35100051031E+03  0.35126936016E+03  0.00000000000E+00 0.  1.
          3    1    3    3  501    0 -0.10166895368E+02 -0.14090310265E+02 -0.35854022729E+03  0.35896099675E+03  0.00000000000E+00 0.  1.
         -3    1    1    2    0  502  0.17840476108E+02  0.25488613228E+02 -0.28928034057E+03  0.29094856492E+03  0.00000000000E+00 0. -1.
<mgrwt>
<rscale>  1 0.30000000E+03</rscale>
<asrwt>0</asrwt>
<pdfrwt beam="1">  1       21 0.42869975E-02 0.30000000E+03</pdfrwt>
<pdfrwt beam="2">0</pdfrwt>
<totfact> 0.37407825E+04</totfact>
</mgrwt>
</event>
<event>
 6    1  0.1273846E-001  0.3000000E+03  0.7818608E-02  0.1093470E+00
         21   -1    0    0  501  502  0.00000000000E+00  0.00000000000E+00  0.20623088620E+01  0.20623088620E+01  0.00000000000E+00 0. -1.
         13   -1    0    0    0    0 -0.00000000000E+00 -0.00000000000E+00 -0.10000000000E+04  0.10000000000E+04  0.00000000000E+00 0.  1.
    9000005    2    1    2  501    0  0.33950436197E+02 -0.33068910515E+01 -0.82927056338E+03  0.82998044569E+03  0.37822339353E+01 0.  0.
         13    1    3    3    0    0  0.26194433088E+01 -0.11940466802E-01 -0.43700531135E+02  0.43778968093E+02  0.00000000000E+00 0.  1.
          1    1    3    3  501    0  0.31330992888E+02 -0.32949505847E+01 -0.78557003225E+03  0.78620147760E+03  0.00000000000E+00 0.  1.
         -3    1    1    2    0  502 -0.33950436197E+02  0.33068910515E+01 -0.16866712776E+03  0.17208186317E+03  0.00000000000E+00 0. -1.
<mgrwt>
<rscale>  1 0.30000000E+03</rscale>
<asrwt>0</asrwt>
<pdfrwt beam="1">  1       21 0.74993208E-02 0.30000000E+03</pdfrwt>
<pdfrwt beam="2">0</pdfrwt>
<totfact> 0.14306732E+04</totfact>
</mgrwt>
</event>
<event>
 6    1  0.1273846E-001  0.3000000E+03  0.7818608E-02  0.1093470E+00
         21   -1    0    0  501  502  0.00000000000E+00  0.00000000000E+00  0.12210329663E+01  0.12210329663E+01  0.00000000000E+00 0. -1.
         13   -1    0    0    0    0 -0.00000000000E+00 -0.00000000000E+00 -0.10000000000E+04  0.10000000000E+04  0.00000000000E+00 0.  1.
    9000005    2    1    2  501    0  0.67745281808E+01  0.33922353666E+02 -0.56311665117E+03  0.56418754023E+03  0.32553670276E+01 0.  0.
         13    1    3    3    0    0  0.56536727157E+01  0.32164762660E+02 -0.53093285587E+03  0.53193630578E+03  0.00000000000E+00 0.  1.
          3    1    3    3  501    0  0.11208554650E+01  0.17575910058E+01 -0.32183795305E+02  0.32251234447E+02  0.00000000000E+00 0.  1.
         -1    1    1    2    0  502 -0.67745281808E+01 -0.33922353666E+02 -0.43566231586E+03  0.43703349273E+03  0.00000000000E+00 0. -1.
<mgrwt>
<rscale>  1 0.30000000E+03</rscale>
<asrwt>0</asrwt>
<pdfrwt beam="1">  1       21 0.44401292E-02 0.30000000E+03</pdfrwt>
<pdfrwt beam="2">0</pdfrwt>
<totfact> 0.35249904E+04</totfact>
</mgrwt>
</event>
<event>
 6    1  0.1273846E-001  0.3000000E+03  0.7818608E-02  0.1093470E+00
         21   -1    0    0  501  502  0.00000000000E+00  0.00000000000E+00  0.13608669196E+01  0.13608669196E+01  0.00000000000E+00 0. -1.
         13   -1    0    0    0    0 -0.00000000000E+00 -0.00000000000E+00 -0.10000000000E+04  0.10000000000E+04  0.00000000000E+00 0.  1.
    9000005    2    1    2  501    0  0.32205378112E+02  0.11762988865E+02 -0.68219582567E+03  0.68306553065E+03  0.34380683205E+01 0.  0.
         13    1    3    3    0    0  0.77251854990E+01  0.40644907790E+01 -0.15527215370E+03  0.15551733116E+03  0.00000000000E+00 0.  1.
          3    1    3    3  501    0  0.24480192613E+02  0.76984980862E+01 -0.52692367197E+03  0.52754819949E+03  0.00000000000E+00 0.  1.
         -1    1    1    2    0  502 -0.32205378112E+02 -0.11762988865E+02 -0.31644330741E+03  0.31829533627E+03  0.00000000000E+00 0. -1.
<mgrwt>
<rscale>  1 0.30000000E+03</rscale>
<asrwt>0</asrwt>
<pdfrwt beam="1">  1       21 0.49486174E-02 0.30000000E+03</pdfrwt>
<pdfrwt beam="2">0</pdfrwt>
<totfact> 0.29316247E+04</totfact>
</mgrwt>
</event>
<event>
 6    1  0.1273846E-001  0.3000000E+03  0.7818608E-02  0.1093470E+00
         21   -1    0    0  501  502  0.00000000000E+00  0.00000000000E+00  0.10650613831E+01  0.10650613831E+01  0.00000000000E+00 0. -1.
         13   -1    0    0    0    0 -0.00000000000E+00 -0.00000000000E+00 -0.10000000000E+04  0.10000000000E+04  0.00000000000E+00 0.  1.
    9000005    2    1    2  501    0  0.18199140606E+02  0.26008031517E+02 -0.61107376345E+03  0.61190710165E+03  0.33956221669E+01 0.  0.
         13    1    3    3    0    0  0.63580693844E+01  0.11616875917E+02 -0.23801749867E+03  0.23838562567E+03  0.00000000000E+00 0.  1.
          1    1    3    3  501    0  0.11841071222E+02  0.14391155600E+02 -0.37305626479E+03  0.37352147599E+03  0.00000000000E+00 0.  1.
         -3    1    1    2    0  502 -0.18199140606E+02 -0.26008031517E+02 -0.38786117516E+03  0.38915795973E+03  0.00000000000E+00 0. -1.
<mgrwt>
<rscale>  1 0.30000000E+03</rscale>
<asrwt>0</asrwt>
<pdfrwt beam="1">  1       21 0.38729587E-02 0.30000000E+03</pdfrwt>
<pdfrwt beam="2">0</pdfrwt>
<totfact> 0.44394106E+04</totfact>
</mgrwt>
</event>
<event>
 6    1  0.1273846E-001  0.3000000E+03  0.7818608E-02  0.1093470E+00
         21   -1    0    0  501  502  0.00000000000E+00  0.00000000000E+00  0.18303124271E+01  0.18303124271E+01  0.00000000000E+00 0. -1.
         13   -1    0    0    0    0 -0.00000000000E+00 -0.00000000000E+00 -0.10000000000E+04  0.10000000000E+04  0.00000000000E+00 0.  1.
    9000005    2    1    2  501    0  0.86254327642E+01 -0.33699016389E+02 -0.22288589121E+03  0.22576653495E+03  0.90766739890E+01 0.  0.
         13    1    3    3    0    0 -0.18900154387E+00  0.25734109876E+00 -0.10337148538E+02  0.10342078414E+02  0.00000000000E+00 0.  1.
          1    1    3    3  501    0  0.88144343081E+01 -0.33956357488E+02 -0.21254874267E+03  0.21542445654E+03  0.00000000000E+00 0.  1.
         -3    1    1    2    0  502 -0.86254327642E+01  0.33699016389E+02 -0.77528379637E+03  0.77606377747E+03  0.00000000000E+00 0. -1.
<mgrwt>
<rscale>  1 0.30000000E+03</rscale>
<asrwt>0</asrwt>
<pdfrwt beam="1">  1       21 0.66556956E-02 0.30000000E+03</pdfrwt>
<pdfrwt beam="2">0</pdfrwt>
<totfact> 0.17612678E+04</totfact>
</mgrwt>
</event>
<event>
 6    1  0.1273846E-001  0.3000000E+03  0.7818608E-02  0.1093470E+00
         21   -1    0    0  501  502  0.00000000000E+00  0.00000000000E+00  0.12361915809E+01  0.12361915809E+01  0.00000000000E+00 0. -1.
         13   -1    0    0    0    0 -0.00000000000E+00 -0.00000000000E+00 -0.10000000000E+04  0.10000000000E+04  0.00000000000E+00 0.  1.
    9000005    2    1    2  501    0 -0.24635032537E+01  0.34886246138E+02 -0.45962168490E+03  0.46096093916E+03  0.31265300034E+01 0.  0.
         13    1    3    3    0    0 -0.59071027143E+00  0.12634406862E+02 -0.18600972957E+03  0.18643925732E+03  0.00000000000E+00 0.  1.
          3    1    3    3  501    0 -0.18727929822E+01  0.22251839277E+02 -0.27361195532E+03  0.27452168184E+03  0.00000000000E+00 0.  1.
         -3    1    1    2    0  502  0.24635032537E+01 -0.34886246138E+02 -0.53914212352E+03  0.54027525242E+03  0.00000000000E+00 0. -1.
<mgrwt>
<rscale>  1 0.30000000E+03</rscale>
<asrwt>0</asrwt>
<pdfrwt beam="1">  1       21 0.44952516E-02 0.30000000E+03</pdfrwt>
<pdfrwt beam="2">0</pdfrwt>
<totfact> 0.34519974E+04</totfact>
</mgrwt>
</event>
<event>
 6    1  0.1273846E-001  0.3000000E+03  0.7818608E-02  0.1093470E+00
         21   -1    0    0  501  502  0.00000000000E+00  0.00000000000E+00  0.45310325560E+01  0.45310325560E+01  0.00000000000E+00 0. -1.
         13   -1    0    0    0    0 -0.00000000000E+00 -0.00000000000E+00 -0.10000000000E+04  0.10000000000E+04  0.00000000000E+00 0.  1.
    9000005    2    1    2  501    0 -0.27622904052E+02 -0.22522140126E+02 -0.92373984023E+03  0.92443521922E+03  0.38614077150E+01 0.  0.
         13    1    3    3    0    0 -0.19912076223E+02 -0.14253469359E+02 -0.65535305582E+03  0.65581039939E+03  0.00000000000E+00 0.  1.
          1    1    3    3  501    0 -0.77108278291E+01 -0.82686707674E+01 -0.26838678441E+03  0.26862481983E+03  0.00000000000E+00 0.  1.
         -1    1    1    2    0  502  0.27622904052E+02  0.22522140126E+02 -0.71729127212E+02  0.80095813340E+02  0.00000000000E+00 0. -1.
<mgrwt>
<rscale>  1 0.30000000E+03</rscale>
<asrwt>0</asrwt>
<pdfrwt beam="1">  1       21 0.16476517E-01 0.30000000E+03</pdfrwt>
<pdfrwt beam="2">0</pdfrwt>
<totfact> 0.34580202E+03</totfact>
</mgrwt>
</event>
<event>
 6    1  0.1273846E-001  0.3000000E+03  0.7818608E-02  0.1093470E+00
         21   -1    0    0  501  502  0.00000000000E+00  0.00000000000E+00  0.31538480710E+01  0.31538480710E+01  0.00000000000E+00 0. -1.
         13   -1    0    0    0    0 -0.00000000000E+00 -0.00000000000E+00 -0.10000000000E+04  0.10000000000E+04  0.00000000000E+00 0.  1.
    9000005    2    1    2  501    0 -0.43784688901E+02 -0.33423966124E+02 -0.41595182752E+03  0.41965365388E+03  0.76815299023E+01 0.  0.
         13    1    3    3    0    0 -0.10952858506E+02 -0.10076362634E+02 -0.90115987228E+02  0.91336681281E+02  0.00000000000E+00 0.  1.
          1    1    3    3  501    0 -0.32831830395E+02 -0.23347603490E+02 -0.32583584029E+03  0.32831697260E+03  0.00000000000E+00 0.  1.
         -3    1    1    2    0  502  0.43784688901E+02  0.33423966124E+02 -0.58089432441E+03  0.58350019419E+03  0.00000000000E+00 0. -1.
<mgrwt>
<rscale>  1 0.30000000E+03</rscale>
<asrwt>0</asrwt>
<pdfrwt beam="1">  1       21 0.11468563E-01 0.30000000E+03</pdfrwt>
<pdfrwt beam="2">0</pdfrwt>
<totfact> 0.67267332E+03</totfact>
</mgrwt>
</event>
<event>
 6    1  0.1273846E-001  0.3000000E+03  0.7818608E-02  0.1093470E+00
         21   -1    0    0  501  502  0.00000000000E+00  0.00000000000E+00  0.37897047239E+01  0.37897047239E+01  0.00000000000E+00 0. -1.
         13   -1    0    0    0    0 -0.00000000000E+00 -0.00000000000E+00 -0.10000000000E+04  0.10000000000E+04  0.00000000000E+00 0.  1.
    9000005    2    1    2  501    0  0.25266801588E+02 -0.29977021326E+02 -0.88495767790E+03  0.88583133095E+03  0.31657779548E+01 0.  0.
         13    1    3    3    0    0  0.20158530881E+01 -0.38472933643E+01 -0.90970081370E+02  0.91073712093E+02  0.00000000000E+00 0.  1.
          3    1    3    3  501    0  0.23250948500E+02 -0.26129727962E+02 -0.79398759653E+03  0.79475761886E+03  0.00000000000E+00 0.  1.
         -3    1    1    2    0  502 -0.25266801588E+02  0.29977021326E+02 -0.11125261737E+03  0.11795837377E+03  0.00000000000E+00 0. -1.
<mgrwt>
<rscale>  1 0.30000000E+03</rscale>
<asrwt>0</asrwt>
<pdfrwt beam="1">  1       21 0.13780774E-01 0.30000000E+03</pdfrwt>
<pdfrwt beam="2">0</pdfrwt>
<totfact> 0.48141779E+03</totfact>
</mgrwt>
</event>
<event>
 6    1  0.1273846E-001  0.3000000E+03  0.7818608E-02  0.1093470E+00
         21   -1    0    0  501  502  0.00000000000E+00  0.00000000000E+00  0.11956880888E+01  0.11956880888E+01  0.00000000000E+00 0. -1.
         13   -1    0    0    0    0 -0.00000000000E+00 -0.00000000000E+00 -0.10000000000E+04  0.10000000000E+04  0.00000000000E+00 0.  1.
    9000005    2    1    2  501    0 -0.22212824166E+02  0.20947166817E+02 -0.27985429824E+03  0.28159766453E+03  0.68281087482E+01 0.  0.
         13    1    3    3    0    0 -0.94397383671E+01  0.12120684859E+02 -0.11684670262E+03  0.11785232953E+03  0.00000000000E+00 0.  1.
          3    1    3    3  501    0 -0.12773085799E+02  0.88264819581E+01 -0.16300759563E+03  0.16374533501E+03  0.00000000000E+00 0.  1.
         -1    1    1    2    0  502  0.22212824166E+02 -0.20947166817E+02 -0.71895001367E+03  0.71959802356E+03  0.00000000000E+00 0. -1.
<mgrwt>
<rscale>  1 0.30000000E+03</rscale>
<asrwt>0</asrwt>
<pdfrwt beam="1">  1       21 0.43479659E-02 0.30000000E+03</pdfrwt>
<pdfrwt beam="2">0</pdfrwt>
<totfact> 0.36524777E+04</totfact>
</mgrwt>
</event>
<event>
 6    1  0.1273846E-001  0.3000000E+03  0.7818608E-02  0.1093470E+00
         21   -1    0    0  501  502  0.00000000000E+00  0.00000000000E+00  0.24816712610E+01  0.24816712610E+01  0.00000000000E+00 0. -1.
         13   -1    0    0    0    0 -0.00000000000E+00 -0.00000000000E+00 -0.10000000000E+04  0.10000000000E+04  0.00000000000E+00 0.  1.
    9000005    2    1    2  501    0 -0.18772644597E+02 -0.27868514950E+02 -0.86863255127E+03  0.86928779023E+03  0.31123631138E+01 0.  0.
         13    1    3    3    0    0 -0.92482115623E+01 -0.12156623741E+02 -0.36166841539E+03  0.36199082255E+03  0.00000000000E+00 0.  1.
          3    1    3    3  501    0 -0.95244330350E+01 -0.15711891208E+02 -0.50696413588E+03  0.50729696769E+03  0.00000000000E+00 0.  1.
         -1    1    1    2    0  502  0.18772644597E+02  0.27868514950E+02 -0.12888577747E+03  0.13319388103E+03  0.00000000000E+00 0. -1.
<mgrwt>
<rscale>  1 0.30000000E+03</rscale>
<asrwt>0</asrwt>
<pdfrwt beam="1">  1       21 0.90242782E-02 0.30000000E+03</pdfrwt>
<pdfrwt beam="2">0</pdfrwt>
<totfact> 0.10328670E+04</totfact>
</mgrwt>
</event>
<event>
 6    1  0.1273846E-001  0.3000000E+03  0.7818608E-02  0.1093470E+00
         21   -1    0    0  501  502  0.00000000000E+00  0.00000000000E+00  0.16616015277E+01  0.16616015277E+01  0.00000000000E+00 0. -1.
         13   -1    0    0    0    0 -0.00000000000E+00 -0.00000000000E+00 -0.10000000000E+04  0.10000000000E+04  0.00000000000E+00 0.  1.
    9000005    2    1    2  501    0  0.31753625032E+02  0.11165447031E+02 -0.77925822619E+03  0.78001079102E+03  0.63632631299E+01 0.  0.
         13    1    3    3    0    0  0.17435261812E+02  0.55664623140E+01 -0.35121494656E+03  0.35169150195E+03  0.00000000000E+00 0.  1.
          1    1    3    3  501    0  0.14318363220E+02  0.55989847170E+01 -0.42804327962E+03  0.42831928907E+03  0.00000000000E+00 0.  1.
         -3    1    1    2    0  502 -0.31753625032E+02 -0.11165447031E+02 -0.21908017229E+03  0.22165081051E+03  0.00000000000E+00 0. -1.
<mgrwt>
<rscale>  1 0.30000000E+03</rscale>
<asrwt>0</asrwt>
<pdfrwt beam="1">  1       21 0.60422001E-02 0.30000000E+03</pdfrwt>
<pdfrwt beam="2">0</pdfrwt>
<totfact> 0.20818458E+04</totfact>
</mgrwt>
</event>
<event>
 6    1  0.1273846E-001  0.3000000E+03  0.7818608E-02  0.1093470E+00
         21   -1    0    0  501  502  0.00000000000E+00  0.00000000000E+00  0.11291833961E+01  0.11291833961E+01  0.00000000000E+00 0. -1.
         13   -1    0    0    0    0 -0.00000000000E+00 -0.00000000000E+00 -0.10000000000E+04  0.10000000000E+04  0.00000000000E+00 0.  1.
    9000005    2    1    2  501    0 -0.10089884400E+01  0.30566313080E+02 -0.70507327863E+03  0.70574416199E+03  0.33431106020E+01 0.  0.
         13    1    3    3    0    0 -0.22249715144E+01  0.21757847250E+02 -0.50474256823E+03  0.50521620579E+03  0.00000000000E+00 0.  1.
          3    1    3    3  501    0  0.12159830744E+01  0.88084658299E+01 -0.20033071040E+03  0.20052795619E+03  0.00000000000E+00 0.  1.
         -1    1    1    2    0  502  0.10089884400E+01 -0.30566313080E+02 -0.29379753798E+03  0.29538502141E+03  0.00000000000E+00 0. -1.
<mgrwt>
<rscale>  1 0.30000000E+03</rscale>
<asrwt>0</asrwt>
<pdfrwt beam="1">  1       21 0.41061301E-02 0.30000000E+03</pdfrwt>
<pdfrwt beam="2">0</pdfrwt>
<totfact> 0.40232147E+04</totfact>
</mgrwt>
</event>
<event>
 6    1  0.1273846E-001  0.3000000E+03  0.7818608E-02  0.1093470E+00
         21   -1    0    0  501  502  0.00000000000E+00  0.00000000000E+00  0.26211739569E+01  0.26211739569E+01  0.00000000000E+00 0. -1.
         13   -1    0    0    0    0 -0.00000000000E+00 -0.00000000000E+00 -0.10000000000E+04  0.10000000000E+04  0.00000000000E+00 0.  1.
    9000005    2    1    2  501    0 -0.29511087086E+02 -0.41698754663E+02 -0.48057333451E+03  0.48329699150E+03  0.39448388409E+01 0.  0.
         13    1    3    3    0    0 -0.19871509938E+02 -0.24807313972E+02 -0.29525513808E+03  0.29696106865E+03  0.00000000000E+00 0.  1.
          1    1    3    3  501    0 -0.96395771481E+01 -0.16891440691E+02 -0.18531819643E+03  0.18633592285E+03  0.00000000000E+00 0.  1.
         -1    1    1    2    0  502  0.29511087086E+02  0.41698754663E+02 -0.51680549154E+03  0.51932418246E+03  0.00000000000E+00 0. -1.
<mgrwt>
<rscale>  1 0.30000000E+03</rscale>
<asrwt>0</asrwt>
<pdfrwt beam="1">  1       21 0.95315618E-02 0.30000000E+03</pdfrwt>
<pdfrwt beam="2">0</pdfrwt>
<totfact> 0.93721752E+03</totfact>
</mgrwt>
</event>
<event>
 6    1  0.1273846E-001  0.3000000E+03  0.7818608E-02  0.1093470E+00
         21   -1    0    0  501  502  0.00000000000E+00  0.00000000000E+00  0.28190264410E+01  0.28190264410E+01  0.00000000000E+00 0. -1.
         13   -1    0    0    0    0 -0.00000000000E+00 -0.00000000000E+00 -0.10000000000E+04  0.10000000000E+04  0.00000000000E+00 0.  1.
    9000005    2    1    2  501    0 -0.46271716839E+02 -0.22283165924E+02 -0.37340128708E+03  0.37692869377E+03  0.30179022393E+01 0.  0.
         13    1    3    3    0    0 -0.34235910647E+02 -0.15341866842E+02 -0.27863247326E+03  0.28114680437E+03  0.00000000000E+00 0.  1.
          1    1    3    3  501    0 -0.12035806192E+02 -0.69412990812E+01 -0.94768813823E+02  0.95781889400E+02  0.00000000000E+00 0.  1.
         -3    1    1    2    0  502  0.46271716839E+02  0.22283165924E+02 -0.62377968648E+03  0.62589033267E+03  0.00000000000E+00 0. -1.
<mgrwt>
<rscale>  1 0.30000000E+03</rscale>
<asrwt>0</asrwt>
<pdfrwt beam="1">  1       21 0.10251027E-01 0.30000000E+03</pdfrwt>
<pdfrwt beam="2">0</pdfrwt>
<totfact> 0.82301112E+03</totfact>
</mgrwt>
</event>
<event>
 6    1  0.1273846E-001  0.3000000E+03  0.7818608E-02  0.1093470E+00
         21   -1    0    0  501  502  0.00000000000E+00  0.00000000000E+00  0.16445147590E+01  0.16445147590E+01  0.00000000000E+00 0. -1.
         13   -1    0    0    0    0 -0.00000000000E+00 -0.00000000000E+00 -0.10000000000E+04  0.10000000000E+04  0.00000000000E+00 0.  1.
    9000005    2    1    2  501    0  0.13800643172E+02  0.34142494788E+02 -0.70788753768E+03  0.70885142013E+03  0.30662868286E+01 0.  0.
         13    1    3    3    0    0  0.55710476316E+01  0.17662565735E+02 -0.36422622396E+03  0.36469678505E+03  0.00000000000E+00 0.  1.
          3    1    3    3  501    0  0.82295955408E+01  0.16479929053E+02 -0.34366131371E+03  0.34415463508E+03  0.00000000000E+00 0.  1.
         -3    1    1    2    0  502 -0.13800643172E+02 -0.34142494788E+02 -0.29046794756E+03  0.29279309463E+03  0.00000000000E+00 0. -1.
<mgrwt>
<rscale>  1 0.30000000E+03</rscale>
<asrwt>0</asrwt>
<pdfrwt beam="1">  1       21 0.59800663E-02 0.30000000E+03</pdfrwt>
<pdfrwt beam="2">0</pdfrwt>
<totfact> 0.21192941E+04</totfact>
</mgrwt>
</event>
<event>
 6    1  0.1273846E-001  0.3000000E+03  0.7818608E-02  0.1093470E+00
         21   -1    0    0  501  502  0.00000000000E+00  0.00000000000E+00  0.92859121782E+01  0.92859121782E+01  0.00000000000E+00 0. -1.
         13   -1    0    0    0    0 -0.00000000000E+00 -0.00000000000E+00 -0.10000000000E+04  0.10000000000E+04  0.00000000000E+00 0.  1.
    9000005    2    1    2  501    0 -0.34493126464E+02  0.35825058317E+02 -0.92750953033E+03  0.92886186936E+03  0.61018772751E+01 0.  0.
         13    1    3    3    0    0 -0.10289828858E+02  0.77439332088E+01 -0.27235698684E+03  0.27266128687E+03  0.00000000000E+00 0.  1.
          3    1    3    3  501    0 -0.24203297606E+02  0.28081125108E+02 -0.65515254350E+03  0.65620058248E+03  0.00000000000E+00 0.  1.
         -1    1    1    2    0  502  0.34493126464E+02 -0.35825058317E+02 -0.63204557489E+02  0.80424042823E+02  0.00000000000E+00 0. -1.
<mgrwt>
<rscale>  1 0.30000000E+03</rscale>
<asrwt>0</asrwt>
<pdfrwt beam="1">  1       21 0.33767025E-01 0.30000000E+03</pdfrwt>
<pdfrwt beam="2">0</pdfrwt>
<totfact> 0.85623620E+02</totfact>
</mgrwt>
</event>
<event>
 6    1  0.1273846E-001  0.3000000E+03  0.7818608E-02  0.1093470E+00
         21   -1    0    0  501  502  0.00000000000E+00  0.00000000000E+00  0.28216329874E+01  0.28216329874E+01  0.00000000000E+00 0. -1.
         13   -1    0    0    0    0 -0.00000000000E+00 -0.00000000000E+00 -0.10000000000E+04  0.10000000000E+04  0.00000000000E+00 0.  1.
    9000005    2    1    2  501    0 -0.23198569583E+02  0.47216156446E+02 -0.55225824936E+03  0.55480215779E+03  0.69800606635E+01 0.  0.
         13    1    3    3    0    0 -0.17821257094E+02  0.38200824641E+02 -0.41165983461E+03  0.41381242084E+03  0.00000000000E+00 0.  1.
          3    1    3    3  501    0 -0.53773124889E+01  0.90153318054E+01 -0.14059841474E+03  0.14098973695E+03  0.00000000000E+00 0.  1.
         -3    1    1    2    0  502  0.23198569583E+02 -0.47216156446E+02 -0.44492011766E+03  0.44801947520E+03  0.00000000000E+00 0. -1.
<mgrwt>
<rscale>  1 0.30000000E+03</rscale>
<asrwt>0</asrwt>
<pdfrwt beam="1">  1       21 0.10260505E-01 0.30000000E+03</pdfrwt>
<pdfrwt beam="2">0</pdfrwt>
<totfact> 0.82165098E+03</totfact>
</mgrwt>
</event>
<event>
 6    1  0.1273846E-001  0.3000000E+03  0.7818608E-02  0.1093470E+00
         21   -1    0    0  501  502  0.00000000000E+00  0.00000000000E+00  0.18006286157E+01  0.18006286157E+01  0.00000000000E+00 0. -1.
         13   -1    0    0    0    0 -0.00000000000E+00 -0.00000000000E+00 -0.10000000000E+04  0.10000000000E+04  0.00000000000E+00 0.  1.
    9000005    2    1    2  501    0 -0.37692459447E+02 -0.12385033241E+02 -0.67517087374E+03  0.67634476242E+03  0.35239701254E+01 0.  0.
         13    1    3    3    0    0 -0.23630822629E+02 -0.94682060671E+01 -0.42323469117E+03  0.42399960674E+03  0.00000000000E+00 0.  1.
          3    1    3    3  501    0 -0.14061636818E+02 -0.29168271739E+01 -0.25193618257E+03  0.25234515569E+03  0.00000000000E+00 0.  1.
         -3    1    1    2    0  502  0.37692459447E+02  0.12385033241E+02 -0.32302849764E+03  0.32545586619E+03  0.00000000000E+00 0. -1.
<mgrwt>
<rscale>  1 0.30000000E+03</rscale>
<asrwt>0</asrwt>
<pdfrwt beam="1">  1       21 0.65477542E-02 0.30000000E+03</pdfrwt>
<pdfrwt beam="2">0</pdfrwt>
<totfact> 0.18118900E+04</totfact>
</mgrwt>
</event>
<event>
 6    1  0.1273846E-001  0.3000000E+03  0.7818608E-02  0.1093470E+00
         21   -1    0    0  501  502  0.00000000000E+00  0.00000000000E+00  0.28110787354E+01  0.28110787354E+01  0.00000000000E+00 0. -1.
         13   -1    0    0    0    0 -0.00000000000E+00 -0.00000000000E+00 -0.10000000000E+04  0.10000000000E+04  0.00000000000E+00 0.  1.
    9000005    2    1    2  501    0 -0.23869348500E+02 -0.46828179571E+02 -0.52498507050E+03  0.52769098773E+03  0.92644527227E+01 0.  0.
         13    1    3    3    0    0 -0.55212002072E+00 -0.26572942701E+01 -0.53233175798E+02  0.53302317537E+02  0.00000000000E+00 0.  1.
          1    1    3    3  501    0 -0.23317228479E+02 -0.44170885301E+02 -0.47175189470E+03  0.47438867019E+03  0.00000000000E+00 0.  1.
         -1    1    1    2    0  502  0.23869348500E+02  0.46828179571E+02 -0.47220385077E+03  0.47512009101E+03  0.00000000000E+00 0. -1.
<mgrwt>
<rscale>  1 0.30000000E+03</rscale>
<asrwt>0</asrwt>
<pdfrwt beam="1">  1       21 0.10222126E-01 0.30000000E+03</pdfrwt>
<pdfrwt beam="2">0</pdfrwt>
<totfact> 0.82717958E+03</totfact>
</mgrwt>
</event>
<event>
 6    1  0.1273846E-001  0.3000000E+03  0.7818608E-02  0.1093470E+00
         21   -1    0    0  501  502  0.00000000000E+00  0.00000000000E+00  0.59698937525E+01  0.59698937525E+01  0.00000000000E+00 0. -1.
         13   -1    0    0    0    0 -0.00000000000E+00 -0.00000000000E+00 -0.10000000000E+04  0.10000000000E+04  0.00000000000E+00 0.  1.
    9000005    2    1    2  501    0  0.36566053534E+02  0.10319095720E+02 -0.93493353223E+03  0.93571347008E+03  0.39278977893E+01 0.  0.
         13    1    3    3    0    0  0.28341627981E+02  0.95782925711E+01 -0.71913035550E+03  0.71975236003E+03  0.00000000000E+00 0.  1.
          3    1    3    3  501    0  0.82244255527E+01  0.74080314913E+00 -0.21580317673E+03  0.21596111005E+03  0.00000000000E+00 0.  1.
         -3    1    1    2    0  502 -0.36566053534E+02 -0.10319095720E+02 -0.59096574015E+02  0.70256423677E+02  0.00000000000E+00 0. -1.
<mgrwt>
<rscale>  1 0.30000000E+03</rscale>
<asrwt>0</asrwt>
<pdfrwt beam="1">  1       21 0.21708750E-01 0.30000000E+03</pdfrwt>
<pdfrwt beam="2">0</pdfrwt>
<totfact> 0.20505045E+03</totfact>
</mgrwt>
</event>
<event>
 6    1  0.1273846E-001  0.3000000E+03  0.7818608E-02  0.1093470E+00
         21   -1    0    0  501  502  0.00000000000E+00  0.00000000000E+00  0.57483513971E+01  0.57483513971E+01  0.00000000000E+00 0. -1.
         13   -1    0    0    0    0 -0.00000000000E+00 -0.00000000000E+00 -0.10000000000E+04  0.10000000000E+04  0.00000000000E+00 0.  1.
    9000005    2    1    2  501    0 -0.48587413722E+02  0.10499950487E+02 -0.87675045165E+03  0.87816497859E+03  0.33748206009E+01 0.  0.
         13    1    3    3    0    0 -0.35485191014E+02  0.70213834203E+01 -0.66103537429E+03  0.66202436864E+03  0.00000000000E+00 0.  1.
          3    1    3    3  501    0 -0.13102222707E+02  0.34785670668E+01 -0.21571507736E+03  0.21614060995E+03  0.00000000000E+00 0.  1.
         -3    1    1    2    0  502  0.48587413722E+02 -0.10499950487E+02 -0.11750119695E+03  0.12758337281E+03  0.00000000000E+00 0. -1.
<mgrwt>
<rscale>  1 0.30000000E+03</rscale>
<asrwt>0</asrwt>
<pdfrwt beam="1">  1       21 0.20903140E-01 0.30000000E+03</pdfrwt>
<pdfrwt beam="2">0</pdfrwt>
<totfact> 0.22048718E+03</totfact>
</mgrwt>
</event>
<event>
 6    1  0.1273846E-001  0.3000000E+03  0.7818608E-02  0.1093470E+00
         21   -1    0    0  501  502  0.00000000000E+00  0.00000000000E+00  0.13876600217E+01  0.13876600217E+01  0.00000000000E+00 0. -1.
         13   -1    0    0    0    0 -0.00000000000E+00 -0.00000000000E+00 -0.10000000000E+04  0.10000000000E+04  0.00000000000E+00 0.  1.
    9000005    2    1    2  501    0  0.12691525900E+02  0.32213687148E+02 -0.31842234951E+03  0.32031701787E+03  0.33768031377E+01 0.  0.
         13    1    3    3    0    0  0.78365157079E+01  0.15424042562E+02 -0.16219786909E+03  0.16311793526E+03  0.00000000000E+00 0.  1.
          1    1    3    3  501    0  0.48550101925E+01  0.16789644586E+02 -0.15622448042E+03  0.15719908261E+03  0.00000000000E+00 0.  1.
         -1    1    1    2    0  502 -0.12691525900E+02 -0.32213687148E+02 -0.68018999047E+03  0.68107064216E+03  0.00000000000E+00 0. -1.
<mgrwt>
<rscale>  1 0.30000000E+03</rscale>
<asrwt>0</asrwt>
<pdfrwt beam="1">  1       21 0.50460471E-02 0.30000000E+03</pdfrwt>
<pdfrwt beam="2">0</pdfrwt>
<totfact> 0.28357903E+04</totfact>
</mgrwt>
</event>
<event>
 6    1  0.1273846E-001  0.3000000E+03  0.7818608E-02  0.1093470E+00
         21   -1    0    0  501  502  0.00000000000E+00  0.00000000000E+00  0.14043091048E+01  0.14043091048E+01  0.00000000000E+00 0. -1.
         13   -1    0    0    0    0 -0.00000000000E+00 -0.00000000000E+00 -0.10000000000E+04  0.10000000000E+04  0.00000000000E+00 0.  1.
    9000005    2    1    2  501    0 -0.30162855027E+02 -0.11064225781E+02 -0.24502093292E+03  0.24714498316E+03  0.36290793911E+01 0.  0.
         13    1    3    3    0    0 -0.49925050776E+00 -0.33461270037E+00 -0.20934854973E+01  0.21780491859E+01  0.00000000000E+00 0.  1.
          3    1    3    3  501    0 -0.29663604519E+02 -0.10729613081E+02 -0.24292744742E+03  0.24496693397E+03  0.00000000000E+00 0.  1.
         -3    1    1    2    0  502  0.30162855027E+02  0.11064225781E+02 -0.75357475798E+03  0.75425932594E+03  0.00000000000E+00 0. -1.
<mgrwt>
<rscale>  1 0.30000000E+03</rscale>
<asrwt>0</asrwt>
<pdfrwt beam="1">  1       21 0.51065893E-02 0.30000000E+03</pdfrwt>
<pdfrwt beam="2">0</pdfrwt>
<totfact> 0.27786730E+04</totfact>
</mgrwt>
</event>
<event>
 6    1  0.1273846E-001  0.3000000E+03  0.7818608E-02  0.1093470E+00
         21   -1    0    0  501  502  0.00000000000E+00  0.00000000000E+00  0.45235249350E+01  0.45235249350E+01  0.00000000000E+00 0. -1.
         13   -1    0    0    0    0 -0.00000000000E+00 -0.00000000000E+00 -0.10000000000E+04  0.10000000000E+04  0.00000000000E+00 0.  1.
    9000005    2    1    2  501    0 -0.14727879558E+01 -0.53771124322E+02 -0.79893857160E+03  0.80075735892E+03  0.40004692824E+01 0.  0.
         13    1    3    3    0    0  0.81044684967E+00 -0.28309924586E+01 -0.41495019825E+02  0.41599375148E+02  0.00000000000E+00 0.  1.
          3    1    3    3  501    0 -0.22832348055E+01 -0.50940131863E+02 -0.75744355178E+03  0.75915798377E+03  0.00000000000E+00 0.  1.
         -1    1    1    2    0  502  0.14727879558E+01  0.53771124322E+02 -0.19653790346E+03  0.20376616602E+03  0.00000000000E+00 0. -1.
<mgrwt>
<rscale>  1 0.30000000E+03</rscale>
<asrwt>0</asrwt>
<pdfrwt beam="1">  1       21 0.16449216E-01 0.30000000E+03</pdfrwt>
<pdfrwt beam="2">0</pdfrwt>
<totfact> 0.34687484E+03</totfact>
</mgrwt>
</event>
<event>
 6    1  0.1273846E-001  0.3000000E+03  0.7818608E-02  0.1093470E+00
         21   -1    0    0  501  502  0.00000000000E+00  0.00000000000E+00  0.25724487785E+01  0.25724487785E+01  0.00000000000E+00 0. -1.
         13   -1    0    0    0    0 -0.00000000000E+00 -0.00000000000E+00 -0.10000000000E+04  0.10000000000E+04  0.00000000000E+00 0.  1.
    9000005    2    1    2  501    0 -0.46916878227E+02  0.87696808309E+01 -0.33131354215E+03  0.33475063583E+03  0.33502558359E+01 0.  0.
         13    1    3    3    0    0 -0.24371778435E+02  0.43257409666E+01 -0.16017872799E+03  0.16207998186E+03  0.00000000000E+00 0.  1.
          3    1    3    3  501    0 -0.22545099792E+02  0.44439398643E+01 -0.17113481415E+03  0.17267065397E+03  0.00000000000E+00 0.  1.
         -1    1    1    2    0  502  0.46916878227E+02 -0.87696808309E+01 -0.66611400908E+03  0.66782181295E+03  0.00000000000E+00 0. -1.
<mgrwt>
<rscale>  1 0.30000000E+03</rscale>
<asrwt>0</asrwt>
<pdfrwt beam="1">  1       21 0.93543789E-02 0.30000000E+03</pdfrwt>
<pdfrwt beam="2">0</pdfrwt>
<totfact> 0.96905250E+03</totfact>
</mgrwt>
</event>
<event>
 6    1  0.1273846E-001  0.3000000E+03  0.7818608E-02  0.1093470E+00
         21   -1    0    0  501  502  0.00000000000E+00  0.00000000000E+00  0.16401033038E+01  0.16401033038E+01  0.00000000000E+00 0. -1.
         13   -1    0    0    0    0 -0.00000000000E+00 -0.00000000000E+00 -0.10000000000E+04  0.10000000000E+04  0.00000000000E+00 0.  1.
    9000005    2    1    2  501    0 -0.18442683577E+02 -0.25719982477E+02 -0.18916804459E+03  0.19182956769E+03  0.35190723132E+01 0.  0.
         13    1    3    3    0    0 -0.36596169291E+01 -0.69962419895E+01 -0.41005326690E+02  0.41758556189E+02  0.00000000000E+00 0.  1.
          3    1    3    3  501    0 -0.14783066648E+02 -0.18723740488E+02 -0.14816271790E+03  0.15007101150E+03  0.00000000000E+00 0.  1.
         -1    1    1    2    0  502  0.18442683577E+02  0.25719982477E+02 -0.80919185211E+03  0.80981053562E+03  0.00000000000E+00 0. -1.
<mgrwt>
<rscale>  1 0.30000000E+03</rscale>
<asrwt>0</asrwt>
<pdfrwt beam="1">  1       21 0.59640246E-02 0.30000000E+03</pdfrwt>
<pdfrwt beam="2">0</pdfrwt>
<totfact> 0.21291330E+04</totfact>
</mgrwt>
</event>
<event>
 6    1  0.1273846E-001  0.3000000E+03  0.7818608E-02  0.1093470E+00
         21   -1    0    0  501  502  0.00000000000E+00  0.00000000000E+00  0.62423209484E+01  0.62423209484E+01  0.00000000000E+00 0. -1.
         13   -1    0    0    0    0 -0.00000000000E+00 -0.00000000000E+00 -0.10000000000E+04  0.10000000000E+04  0.00000000000E+00 0.  1.
    9000005    2    1    2  501    0 -0.70578353329E+02  0.22895717187E+02 -0.66931146755E+03  0.67341975263E+03  0.32870677516E+01 0.  0.
         13    1    3    3    0    0 -0.27590733075E+02  0.10329250192E+02 -0.27406050098E+03  0.27563943868E+03  0.00000000000E+00 0.  1.
          3    1    3    3  501    0 -0.42987620254E+02  0.12566466995E+02 -0.39525096657E+03  0.39778031395E+03  0.00000000000E+00 0.  1.
         -1    1    1    2    0  502  0.70578353329E+02 -0.22895717187E+02 -0.32444621150E+03  0.33282256832E+03  0.00000000000E+00 0. -1.
<mgrwt>
<rscale>  1 0.30000000E+03</rscale>
<asrwt>0</asrwt>
<pdfrwt beam="1">  1       21 0.22699397E-01 0.30000000E+03</pdfrwt>
<pdfrwt beam="2">0</pdfrwt>
<totfact> 0.18815321E+03</totfact>
</mgrwt>
</event>
<event>
 6    1  0.1273846E-001  0.3000000E+03  0.7818608E-02  0.1093470E+00
         21   -1    0    0  501  502  0.00000000000E+00  0.00000000000E+00  0.12887965990E+01  0.12887965990E+01  0.00000000000E+00 0. -1.
         13   -1    0    0    0    0 -0.00000000000E+00 -0.00000000000E+00 -0.10000000000E+04  0.10000000000E+04  0.00000000000E+00 0.  1.
    9000005    2    1    2  501    0 -0.33112183240E+02 -0.42489129646E+01 -0.68165448062E+03  0.68247939366E+03  0.32896631883E+01 0.  0.
         13    1    3    3    0    0 -0.14524051867E+02 -0.46329871979E+00 -0.27842944173E+03  0.27880838716E+03  0.00000000000E+00 0.  1.
          3    1    3    3  501    0 -0.18588131374E+02 -0.37856142448E+01 -0.40322503888E+03  0.40367100649E+03  0.00000000000E+00 0.  1.
         -3    1    1    2    0  502  0.33112183240E+02  0.42489129646E+01 -0.31705672279E+03  0.31880940294E+03  0.00000000000E+00 0. -1.
<mgrwt>
<rscale>  1 0.30000000E+03</rscale>
<asrwt>0</asrwt>
<pdfrwt beam="1">  1       21 0.46865430E-02 0.30000000E+03</pdfrwt>
<pdfrwt beam="2">0</pdfrwt>
<totfact> 0.32160729E+04</totfact>
</mgrwt>
</event>
<event>
 6    1  0.1273846E-001  0.3000000E+03  0.7818608E-02  0.1093470E+00
         21   -1    0    0  501  502  0.00000000000E+00  0.00000000000E+00  0.38331839163E+01  0.38331839163E+01  0.00000000000E+00 0. -1.
         13   -1    0    0    0    0 -0.00000000000E+00 -0.00000000000E+00 -0.10000000000E+04  0.10000000000E+04  0.00000000000E+00 0.  1.
    9000005    2    1    2  501    0  0.23506099109E+02 -0.34877008956E+02 -0.86629032352E+03  0.86731635064E+03  0.31280987974E+01 0.  0.
         13    1    3    3    0    0  0.18801877233E+02 -0.29944521247E+02 -0.72416757481E+03  0.72503024857E+03  0.00000000000E+00 0.  1.
          1    1    3    3  501    0  0.47042218759E+01 -0.49324877084E+01 -0.14212274871E+03  0.14228610206E+03  0.00000000000E+00 0.  1.
         -1    1    1    2    0  502 -0.23506099109E+02  0.34877008956E+02 -0.12987649256E+03  0.13651683328E+03  0.00000000000E+00 0. -1.
<mgrwt>
<rscale>  1 0.30000000E+03</rscale>
<asrwt>0</asrwt>
<pdfrwt beam="1">  1       21 0.13938880E-01 0.30000000E+03</pdfrwt>
<pdfrwt beam="2">0</pdfrwt>
<totfact> 0.47144158E+03</totfact>
</mgrwt>
</event>
<event>
 6    1  0.1273846E-001  0.3000000E+03  0.7818608E-02  0.1093470E+00
         21   -1    0    0  501  502  0.00000000000E+00  0.00000000000E+00  0.30458131069E+01  0.30458131069E+01  0.00000000000E+00 0. -1.
         13   -1    0    0    0    0 -0.00000000000E+00 -0.00000000000E+00 -0.10000000000E+04  0.10000000000E+04  0.00000000000E+00 0.  1.
    9000005    2    1    2  501    0  0.38240808819E+02  0.32733393655E+02 -0.70142870668E+03  0.70326398582E+03  0.66459514322E+01 0.  0.
         13    1    3    3    0    0  0.36062385054E+02  0.29698753513E+02 -0.62470857261E+03  0.62645296094E+03  0.00000000000E+00 0.  1.
          1    1    3    3  501    0  0.21784237643E+01  0.30346401418E+01 -0.76720134072E+02  0.76811024879E+02  0.00000000000E+00 0.  1.
         -1    1    1    2    0  502 -0.38240808819E+02 -0.32733393655E+02 -0.29552548021E+03  0.29978182729E+03  0.00000000000E+00 0. -1.
<mgrwt>
<rscale>  1 0.30000000E+03</rscale>
<asrwt>0</asrwt>
<pdfrwt beam="1">  1       21 0.11075707E-01 0.30000000E+03</pdfrwt>
<pdfrwt beam="2">0</pdfrwt>
<totfact> 0.71630559E+03</totfact>
</mgrwt>
</event>
<event>
 6    1  0.1273846E-001  0.3000000E+03  0.7818608E-02  0.1093470E+00
         21   -1    0    0  501  502  0.00000000000E+00  0.00000000000E+00  0.25540862233E+01  0.25540862233E+01  0.00000000000E+00 0. -1.
         13   -1    0    0    0    0 -0.00000000000E+00 -0.00000000000E+00 -0.10000000000E+04  0.10000000000E+04  0.00000000000E+00 0.  1.
    9000005    2    1    2  501    0 -0.41012310838E+02  0.73206349229E+01 -0.78201794796E+03  0.78313483048E+03  0.35341816295E+01 0.  0.
         13    1    3    3    0    0 -0.81807606428E+01  0.11232585591E+00 -0.16160985177E+03  0.16181681510E+03  0.00000000000E+00 0.  1.
          3    1    3    3  501    0 -0.32831550196E+02  0.72083090670E+01 -0.62040809620E+03  0.62131801538E+03  0.00000000000E+00 0.  1.
         -1    1    1    2    0  502  0.41012310838E+02 -0.73206349229E+01 -0.21542796581E+03  0.21941925574E+03  0.00000000000E+00 0. -1.
<mgrwt>
<rscale>  1 0.30000000E+03</rscale>
<asrwt>0</asrwt>
<pdfrwt beam="1">  1       21 0.92876059E-02 0.30000000E+03</pdfrwt>
<pdfrwt beam="2">0</pdfrwt>
<totfact> 0.98147247E+03</totfact>
</mgrwt>
</event>
<event>
 6    1  0.1273846E-001  0.3000000E+03  0.7818608E-02  0.1093470E+00
         21   -1    0    0  501  502  0.00000000000E+00  0.00000000000E+00  0.29778040098E+01  0.29778040098E+01  0.00000000000E+00 0. -1.
         13   -1    0    0    0    0 -0.00000000000E+00 -0.00000000000E+00 -0.10000000000E+04  0.10000000000E+04  0.00000000000E+00 0.  1.
    9000005    2    1    2  501    0  0.20620221986E+02  0.40269432277E+02 -0.22028005996E+03  0.22491921584E+03  0.43044291279E+01 0.  0.
         13    1    3    3    0    0  0.17922453828E+01  0.64869845494E+01 -0.29385149149E+02  0.30145979874E+02  0.00000000000E+00 0.  1.
          3    1    3    3  501    0  0.18827976604E+02  0.33782447728E+02 -0.19089491081E+03  0.19477323597E+03  0.00000000000E+00 0.  1.
         -1    1    1    2    0  502 -0.20620221986E+02 -0.40269432277E+02 -0.77674213603E+03  0.77805858816E+03  0.00000000000E+00 0. -1.
<mgrwt>
<rscale>  1 0.30000000E+03</rscale>
<asrwt>0</asrwt>
<pdfrwt beam="1">  1       21 0.10828401E-01 0.30000000E+03</pdfrwt>
<pdfrwt beam="2">0</pdfrwt>
<totfact> 0.74599541E+03</totfact>
</mgrwt>
</event>
<event>
 6    1  0.1273846E-001  0.3000000E+03  0.7818608E-02  0.1093470E+00
         21   -1    0    0  501  502  0.00000000000E+00  0.00000000000E+00  0.18314008837E+01  0.18314008837E+01  0.00000000000E+00 0. -1.
         13   -1    0    0    0    0 -0.00000000000E+00 -0.00000000000E+00 -0.10000000000E+04  0.10000000000E+04  0.00000000000E+00 0.  1.
    9000005    2    1    2  501    0 -0.32725037128E+02 -0.18657735418E+02 -0.73569901642E+03  0.73667235241E+03  0.37513864493E+01 0.  0.
         13    1    3    3    0    0 -0.21748810399E+02 -0.12438921098E+02 -0.45365850729E+03  0.45434984180E+03  0.00000000000E+00 0.  1.
          1    1    3    3  501    0 -0.10976226728E+02 -0.62188143204E+01 -0.28204050913E+03  0.28232251061E+03  0.00000000000E+00 0.  1.
         -3    1    1    2    0  502  0.32725037128E+02  0.18657735418E+02 -0.26246958270E+03  0.26515904847E+03  0.00000000000E+00 0. -1.
<mgrwt>
<rscale>  1 0.30000000E+03</rscale>
<asrwt>0</asrwt>
<pdfrwt beam="1">  1       21 0.66596536E-02 0.30000000E+03</pdfrwt>
<pdfrwt beam="2">0</pdfrwt>
<totfact> 0.17594531E+04</totfact>
</mgrwt>
</event>
<event>
 6    1  0.1273846E-001  0.3000000E+03  0.7818608E-02  0.1093470E+00
         21   -1    0    0  501  502  0.00000000000E+00  0.00000000000E+00  0.29386518450E+01  0.29386518450E+01  0.00000000000E+00 0. -1.
         13   -1    0    0    0    0 -0.00000000000E+00 -0.00000000000E+00 -0.10000000000E+04  0.10000000000E+04  0.00000000000E+00 0.  1.
    9000005    2    1    2  501    0  0.32074752761E+02  0.66277112223E+01 -0.89731477914E+03  0.89795248918E+03  0.84937413253E+01 0.  0.
         13    1    3    3    0    0  0.15674242841E+02  0.75614545548E+01 -0.45320609612E+03  0.45354010081E+03  0.00000000000E+00 0.  1.
          3    1    3    3  501    0  0.16400509920E+02 -0.93374333255E+00 -0.44410868302E+03  0.44441238837E+03  0.00000000000E+00 0.  1.
         -1    1    1    2    0  502 -0.32074752761E+02 -0.66277112223E+01 -0.99746569016E+02  0.10498616267E+03  0.00000000000E+00 0. -1.
<mgrwt>
<rscale>  1 0.30000000E+03</rscale>
<asrwt>0</asrwt>
<pdfrwt beam="1">  1       21 0.10686029E-01 0.30000000E+03</pdfrwt>
<pdfrwt beam="2">0</pdfrwt>
<totfact> 0.76393880E+03</totfact>
</mgrwt>
</event>
<event>
 6    1  0.1273846E-001  0.3000000E+03  0.7818608E-02  0.1093470E+00
         21   -1    0    0  501  502  0.00000000000E+00  0.00000000000E+00  0.18911101288E+01  0.18911101288E+01  0.00000000000E+00 0. -1.
         13   -1    0    0    0    0 -0.00000000000E+00 -0.00000000000E+00 -0.10000000000E+04  0.10000000000E+04  0.00000000000E+00 0.  1.
    9000005    2    1    2  501    0  0.33083670806E+02  0.51627410899E+01 -0.81822872249E+03  0.81892100933E+03  0.34919970197E+01 0.  0.
         13    1    3    3    0    0  0.19560725291E+02  0.38639152353E+01 -0.44913307227E+03  0.44957543129E+03  0.00000000000E+00 0.  1.
          1    1    3    3  501    0  0.13522945515E+02  0.12988258546E+01 -0.36909565022E+03  0.36934557804E+03  0.00000000000E+00 0.  1.
         -3    1    1    2    0  502 -0.33083670806E+02 -0.51627410899E+01 -0.17988016738E+03  0.18297010080E+03  0.00000000000E+00 0. -1.
<mgrwt>
<rscale>  1 0.30000000E+03</rscale>
<asrwt>0</asrwt>
<pdfrwt beam="1">  1       21 0.68767786E-02 0.30000000E+03</pdfrwt>
<pdfrwt beam="2">0</pdfrwt>
<totfact> 0.16641423E+04</totfact>
</mgrwt>
</event>
<event>
 6    1  0.1273846E-001  0.3000000E+03  0.7818608E-02  0.1093470E+00
         21   -1    0    0  501  502  0.00000000000E+00  0.00000000000E+00  0.33291906894E+01  0.33291906894E+01  0.00000000000E+00 0. -1.
         13   -1    0    0    0    0 -0.00000000000E+00 -0.00000000000E+00 -0.10000000000E+04  0.10000000000E+04  0.00000000000E+00 0.  1.
    9000005    2    1    2  501    0  0.35620918343E+02  0.30191056846E+02 -0.79270920428E+03  0.79409084319E+03  0.34691429632E+01 0.  0.
         13    1    3    3    0    0  0.21216805855E+02  0.15751759526E+02 -0.45162535927E+03  0.45239776294E+03  0.00000000000E+00 0.  1.
          1    1    3    3  501    0  0.14404112489E+02  0.14439297320E+02 -0.34108384501E+03  0.34169308025E+03  0.00000000000E+00 0.  1.
         -1    1    1    2    0  502 -0.35620918343E+02 -0.30191056846E+02 -0.20396160504E+03  0.20923834750E+03  0.00000000000E+00 0. -1.
<mgrwt>
<rscale>  1 0.30000000E+03</rscale>
<asrwt>0</asrwt>
<pdfrwt beam="1">  1       21 0.12106173E-01 0.30000000E+03</pdfrwt>
<pdfrwt beam="2">0</pdfrwt>
<totfact> 0.60987811E+03</totfact>
</mgrwt>
</event>
<event>
 6    1  0.1273846E-001  0.3000000E+03  0.7818608E-02  0.1093470E+00
         21   -1    0    0  501  502  0.00000000000E+00  0.00000000000E+00  0.29982296119E+01  0.29982296119E+01  0.00000000000E+00 0. -1.
         13   -1    0    0    0    0 -0.00000000000E+00 -0.00000000000E+00 -0.10000000000E+04  0.10000000000E+04  0.00000000000E+00 0.  1.
    9000005    2    1    2  501    0 -0.24151220336E+02  0.19546257589E+02 -0.91136976095E+03  0.91190389022E+03  0.29199638559E+01 0.  0.
         13    1    3    3    0    0 -0.81695095103E+01  0.84308798632E+01 -0.34233273215E+03  0.34253396930E+03  0.00000000000E+00 0.  1.
          1    1    3    3  501    0 -0.15981710826E+02  0.11115377726E+02 -0.56903702880E+03  0.56936992092E+03  0.00000000000E+00 0.  1.
         -1    1    1    2    0  502  0.24151220336E+02 -0.19546257589E+02 -0.85632009439E+02  0.91094339396E+02  0.00000000000E+00 0. -1.
<mgrwt>
<rscale>  1 0.30000000E+03</rscale>
<asrwt>0</asrwt>
<pdfrwt beam="1">  1       21 0.10902676E-01 0.30000000E+03</pdfrwt>
<pdfrwt beam="2">0</pdfrwt>
<totfact> 0.73688621E+03</totfact>
</mgrwt>
</event>
<event>
 6    1  0.1273846E-001  0.3000000E+03  0.7818608E-02  0.1093470E+00
         21   -1    0    0  501  502  0.00000000000E+00  0.00000000000E+00  0.18986265935E+01  0.18986265935E+01  0.00000000000E+00 0. -1.
         13   -1    0    0    0    0 -0.00000000000E+00 -0.00000000000E+00 -0.10000000000E+04  0.10000000000E+04  0.00000000000E+00 0.  1.
    9000005    2    1    2  501    0 -0.30777225948E+01  0.34379267900E+02 -0.80414410777E+03  0.80489398876E+03  0.38962328686E+01 0.  0.
         13    1    3    3    0    0  0.16144235773E-01  0.21073286082E+02 -0.49179529744E+03  0.49224658276E+03  0.00000000000E+00 0.  1.
          1    1    3    3  501    0 -0.30938668306E+01  0.13305981818E+02 -0.31234881033E+03  0.31264740600E+03  0.00000000000E+00 0.  1.
         -3    1    1    2    0  502  0.30777225948E+01 -0.34379267900E+02 -0.19395726563E+03  0.19700463784E+03  0.00000000000E+00 0. -1.
<mgrwt>
<rscale>  1 0.30000000E+03</rscale>
<asrwt>0</asrwt>
<pdfrwt beam="1">  1       21 0.69041113E-02 0.30000000E+03</pdfrwt>
<pdfrwt beam="2">0</pdfrwt>
<totfact> 0.16527076E+04</totfact>
</mgrwt>
</event>
<event>
 6    1  0.1273846E-001  0.3000000E+03  0.7818608E-02  0.1093470E+00
         21   -1    0    0  501  502  0.00000000000E+00  0.00000000000E+00  0.13058615213E+01  0.13058615213E+01  0.00000000000E+00 0. -1.
         13   -1    0    0    0    0 -0.00000000000E+00 -0.00000000000E+00 -0.10000000000E+04  0.10000000000E+04  0.00000000000E+00 0.  1.
    9000005    2    1    2  501    0  0.67283285492E+01 -0.29570631800E+02 -0.76658773017E+03  0.76722664961E+03  0.77647380806E+01 0.  0.
         13    1    3    3    0    0  0.67902091524E+01 -0.12869192421E+02 -0.37914404470E+03  0.37942315386E+03  0.00000000000E+00 0.  1.
          1    1    3    3  501    0 -0.61880603212E-01 -0.16701439379E+02 -0.38744368547E+03  0.38780349575E+03  0.00000000000E+00 0.  1.
         -1    1    1    2    0  502 -0.67283285492E+01  0.29570631800E+02 -0.23210640831E+03  0.23407921191E+03  0.00000000000E+00 0. -1.
<mgrwt>
<rscale>  1 0.30000000E+03</rscale>
<asrwt>0</asrwt>
<pdfrwt beam="1">  1       21 0.47485974E-02 0.30000000E+03</pdfrwt>
<pdfrwt beam="2">0</pdfrwt>
<totfact> 0.31449344E+04</totfact>
</mgrwt>
</event>
<event>
 6    1  0.1273846E-001  0.3000000E+03  0.7818608E-02  0.1093470E+00
         21   -1    0    0  501  502  0.00000000000E+00  0.00000000000E+00  0.19230305519E+01  0.19230305519E+01  0.00000000000E+00 0. -1.
         13   -1    0    0    0    0 -0.00000000000E+00 -0.00000000000E+00 -0.10000000000E+04  0.10000000000E+04  0.00000000000E+00 0.  1.
    9000005    2    1    2  501    0  0.39360430888E+02 -0.51343532218E+00 -0.71875439147E+03  0.71984040133E+03  0.35806433028E+01 0.  0.
         13    1    3    3    0    0  0.38502619796E+02  0.99440899530E-02 -0.69663785169E+03  0.69770104503E+03  0.00000000000E+00 0.  1.
          3    1    3    3  501    0  0.85781109211E+00 -0.52337941213E+00 -0.22116539776E+02  0.22139356303E+02  0.00000000000E+00 0.  1.
         -1    1    1    2    0  502 -0.39360430888E+02  0.51343532218E+00 -0.27932257798E+03  0.28208262922E+03  0.00000000000E+00 0. -1.
<mgrwt>
<rscale>  1 0.30000000E+03</rscale>
<asrwt>0</asrwt>
<pdfrwt beam="1">  1       21 0.69928531E-02 0.30000000E+03</pdfrwt>
<pdfrwt beam="2">0</pdfrwt>
<totfact> 0.16163996E+04</totfact>
</mgrwt>
</event>
<event>
 6    1  0.1273846E-001  0.3000000E+03  0.7818608E-02  0.1093470E+00
         21   -1    0    0  501  502  0.00000000000E+00  0.00000000000E+00  0.15551634152E+01  0.15551634152E+01  0.00000000000E+00 0. -1.
         13   -1    0    0    0    0 -0.00000000000E+00 -0.00000000000E+00 -0.10000000000E+04  0.10000000000E+04  0.00000000000E+00 0.  1.
    9000005    2    1    2  501    0 -0.37866826770E+02  0.67008756800E+01 -0.60787660161E+03  0.60909835754E+03  0.28369123259E+01 0.  0.
         13    1    3    3    0    0 -0.19740198250E+01  0.37080246646E+00 -0.23148099375E+02  0.23235075929E+02  0.00000000000E+00 0.  1.
          1    1    3    3  501    0 -0.35892806945E+02  0.63300732135E+01 -0.58472850224E+03  0.58586328162E+03  0.00000000000E+00 0.  1.
         -1    1    1    2    0  502  0.37866826770E+02 -0.67008756800E+01 -0.39056823497E+03  0.39245680587E+03  0.00000000000E+00 0. -1.
<mgrwt>
<rscale>  1 0.30000000E+03</rscale>
<asrwt>0</asrwt>
<pdfrwt beam="1">  1       21 0.56551516E-02 0.30000000E+03</pdfrwt>
<pdfrwt beam="2">0</pdfrwt>
<totfact> 0.23332946E+04</totfact>
</mgrwt>
</event>
<event>
 6    1  0.1273846E-001  0.3000000E+03  0.7818608E-02  0.1093470E+00
         21   -1    0    0  501  502  0.00000000000E+00  0.00000000000E+00  0.47741149724E+01  0.47741149724E+01  0.00000000000E+00 0. -1.
         13   -1    0    0    0    0 -0.00000000000E+00 -0.00000000000E+00 -0.10000000000E+04  0.10000000000E+04  0.00000000000E+00 0.  1.
    9000005    2    1    2  501    0  0.46181770932E+00  0.53395899937E+02 -0.81625646783E+03  0.81800851938E+03  0.34613718591E+01 0.  0.
         13    1    3    3    0    0  0.59414623670E+00  0.13074879452E+02 -0.22236145885E+03  0.22274632178E+03  0.00000000000E+00 0.  1.
          1    1    3    3  501    0 -0.13232852738E+00  0.40321020484E+02 -0.59389500898E+03  0.59526219760E+03  0.00000000000E+00 0.  1.
         -3    1    1    2    0  502 -0.46181770932E+00 -0.53395899937E+02 -0.17896941720E+03  0.18676559559E+03  0.00000000000E+00 0. -1.
<mgrwt>
<rscale>  1 0.30000000E+03</rscale>
<asrwt>0</asrwt>
<pdfrwt beam="1">  1       21 0.17360455E-01 0.30000000E+03</pdfrwt>
<pdfrwt beam="2">0</pdfrwt>
<totfact> 0.31357202E+03</totfact>
</mgrwt>
</event>
<event>
 6    1  0.1273846E-001  0.3000000E+03  0.7818608E-02  0.1093470E+00
         21   -1    0    0  501  502  0.00000000000E+00  0.00000000000E+00  0.26148583791E+01  0.26148583791E+01  0.00000000000E+00 0. -1.
         13   -1    0    0    0    0 -0.00000000000E+00 -0.00000000000E+00 -0.10000000000E+04  0.10000000000E+04  0.00000000000E+00 0.  1.
    9000005    2    1    2  501    0 -0.12083884188E+02 -0.31535293956E+02 -0.87483389403E+03  0.87549561001E+03  0.42102216442E+01 0.  0.
         13    1    3    3    0    0 -0.10202015490E+02 -0.29239049433E+02 -0.77758986040E+03  0.77820626709E+03  0.00000000000E+00 0.  1.
          3    1    3    3  501    0 -0.18818686977E+01 -0.22962445226E+01 -0.97244033630E+02  0.97289342918E+02  0.00000000000E+00 0.  1.
         -1    1    1    2    0  502  0.12083884188E+02  0.31535293956E+02 -0.12255124759E+03  0.12711924837E+03  0.00000000000E+00 0. -1.
<mgrwt>
<rscale>  1 0.30000000E+03</rscale>
<asrwt>0</asrwt>
<pdfrwt beam="1">  1       21 0.95085960E-02 0.30000000E+03</pdfrwt>
<pdfrwt beam="2">0</pdfrwt>
<totfact> 0.94125462E+03</totfact>
</mgrwt>
</event>
<event>
 6    1  0.1273846E-001  0.3000000E+03  0.7818608E-02  0.1093470E+00
         21   -1    0    0  501  502  0.00000000000E+00  0.00000000000E+00  0.11995053489E+01  0.11995053489E+01  0.00000000000E+00 0. -1.
         13   -1    0    0    0    0 -0.00000000000E+00 -0.00000000000E+00 -0.10000000000E+04  0.10000000000E+04  0.00000000000E+00 0.  1.
    9000005    2    1    2  501    0 -0.29490414700E+02  0.60721644078E+01 -0.74554751993E+03  0.74616298846E+03  0.33978139619E+01 0.  0.
         13    1    3    3    0    0 -0.34131435677E+01  0.66282752001E+00 -0.11665946990E+03  0.11671127112E+03  0.00000000000E+00 0.  1.
          1    1    3    3  501    0 -0.26077271133E+02  0.54093368878E+01 -0.62888805003E+03  0.62945171734E+03  0.00000000000E+00 0.  1.
         -3    1    1    2    0  502  0.29490414700E+02 -0.60721644078E+01 -0.25325297472E+03  0.25503651689E+03  0.00000000000E+00 0. -1.
<mgrwt>
<rscale>  1 0.30000000E+03</rscale>
<asrwt>0</asrwt>
<pdfrwt beam="1">  1       21 0.43618468E-02 0.30000000E+03</pdfrwt>
<pdfrwt beam="2">0</pdfrwt>
<totfact> 0.36328243E+04</totfact>
</mgrwt>
</event>
<event>
 6    1  0.1273846E-001  0.3000000E+03  0.7818608E-02  0.1093470E+00
         21   -1    0    0  501  502  0.00000000000E+00  0.00000000000E+00  0.30739732579E+01  0.30739732579E+01  0.00000000000E+00 0. -1.
         13   -1    0    0    0    0 -0.00000000000E+00 -0.00000000000E+00 -0.10000000000E+04  0.10000000000E+04  0.00000000000E+00 0.  1.
    9000005    2    1    2  501    0 -0.32482838551E+02  0.43120006548E+02 -0.61126151049E+03  0.61364928367E+03  0.32154901014E+01 0.  0.
         13    1    3    3    0    0 -0.18310344219E+02  0.24809664258E+02 -0.33123312849E+03  0.33266525751E+03  0.00000000000E+00 0.  1.
          3    1    3    3  501    0 -0.14172494332E+02  0.18310342291E+02 -0.28002838200E+03  0.28098402616E+03  0.00000000000E+00 0.  1.
         -1    1    1    2    0  502  0.32482838551E+02 -0.43120006548E+02 -0.38566451625E+03  0.38942468958E+03  0.00000000000E+00 0. -1.
<mgrwt>
<rscale>  1 0.30000000E+03</rscale>
<asrwt>0</asrwt>
<pdfrwt beam="1">  1       21 0.11178108E-01 0.30000000E+03</pdfrwt>
<pdfrwt beam="2">0</pdfrwt>
<totfact> 0.70453130E+03</totfact>
</mgrwt>
</event>
<event>
 6    1  0.1273846E-001  0.3000000E+03  0.7818608E-02  0.1093470E+00
         21   -1    0    0  501  502  0.00000000000E+00  0.00000000000E+00  0.15467407153E+01  0.15467407153E+01  0.00000000000E+00 0. -1.
         13   -1    0    0    0    0 -0.00000000000E+00 -0.00000000000E+00 -0.10000000000E+04  0.10000000000E+04  0.00000000000E+00 0.  1.
    9000005    2    1    2  501    0  0.91095470595E+01 -0.37973546403E+02 -0.54314151038E+03  0.54456341196E+03  0.46513727475E+01 0.  0.
         13    1    3    3    0    0  0.26003605183E+01 -0.43500036995E+01 -0.74478462753E+02  0.74650692034E+02  0.00000000000E+00 0.  1.
          1    1    3    3  501    0  0.65091865412E+01 -0.33623542703E+02 -0.46866304763E+03  0.46991271992E+03  0.00000000000E+00 0.  1.
         -3    1    1    2    0  502 -0.91095470595E+01  0.37973546403E+02 -0.45531174890E+03  0.45698332876E+03  0.00000000000E+00 0. -1.
<mgrwt>
<rscale>  1 0.30000000E+03</rscale>
<asrwt>0</asrwt>
<pdfrwt beam="1">  1       21 0.56245236E-02 0.30000000E+03</pdfrwt>
<pdfrwt beam="2">0</pdfrwt>
<totfact> 0.23551661E+04</totfact>
</mgrwt>
</event>
<event>
 6    1  0.1273846E-001  0.3000000E+03  0.7818608E-02  0.1093470E+00
         21   -1    0    0  501  502  0.00000000000E+00  0.00000000000E+00  0.11009900645E+01  0.11009900645E+01  0.00000000000E+00 0. -1.
         13   -1    0    0    0    0 -0.00000000000E+00 -0.00000000000E+00 -0.10000000000E+04  0.10000000000E+04  0.00000000000E+00 0.  1.
    9000005    2    1    2  501    0 -0.28618882619E+02 -0.94794349496E+01 -0.70686408005E+03  0.70751403463E+03  0.32220181639E+01 0.  0.
         13    1    3    3    0    0 -0.25631449320E+02 -0.75281410823E+01 -0.63423970330E+03  0.63480205210E+03  0.00000000000E+00 0.  1.
          1    1    3    3  501    0 -0.29874332988E+01 -0.19512938673E+01 -0.72624376747E+02  0.72711982530E+02  0.00000000000E+00 0.  1.
         -1    1    1    2    0  502  0.28618882619E+02  0.94794349496E+01 -0.29203492988E+03  0.29358695543E+03  0.00000000000E+00 0. -1.
<mgrwt>
<rscale>  1 0.30000000E+03</rscale>
<asrwt>0</asrwt>
<pdfrwt beam="1">  1       21 0.40036087E-02 0.30000000E+03</pdfrwt>
<pdfrwt beam="2">0</pdfrwt>
<totfact> 0.41983518E+04</totfact>
</mgrwt>
</event>
<event>
 6    1  0.1273846E-001  0.3000000E+03  0.7818608E-02  0.1093470E+00
         21   -1    0    0  501  502  0.00000000000E+00  0.00000000000E+00  0.10550706056E+01  0.10550706056E+01  0.00000000000E+00 0. -1.
         13   -1    0    0    0    0 -0.00000000000E+00 -0.00000000000E+00 -0.10000000000E+04  0.10000000000E+04  0.00000000000E+00 0.  1.
    9000005    2    1    2  501    0 -0.25402757092E+02  0.19555999035E+02 -0.57234657084E+03  0.57325383559E+03  0.34096468236E+01 0.  0.
         13    1    3    3    0    0 -0.25240720859E+02  0.19581674495E+02 -0.57145933282E+03  0.57235155721E+03  0.00000000000E+00 0.  1.
          1    1    3    3  501    0 -0.16203623281E+00 -0.25675459706E-01 -0.88723802190E+00  0.90227838136E+00  0.00000000000E+00 0.  1.
         -3    1    1    2    0  502  0.25402757092E+02 -0.19555999035E+02 -0.42659835855E+03  0.42780123502E+03  0.00000000000E+00 0. -1.
<mgrwt>
<rscale>  1 0.30000000E+03</rscale>
<asrwt>0</asrwt>
<pdfrwt beam="1">  1       21 0.38366285E-02 0.30000000E+03</pdfrwt>
<pdfrwt beam="2">0</pdfrwt>
<totfact> 0.45103101E+04</totfact>
</mgrwt>
</event>
<event>
 6    1  0.1273846E-001  0.3000000E+03  0.7818608E-02  0.1093470E+00
         21   -1    0    0  501  502  0.00000000000E+00  0.00000000000E+00  0.62788095116E+01  0.62788095116E+01  0.00000000000E+00 0. -1.
         13   -1    0    0    0    0 -0.00000000000E+00 -0.00000000000E+00 -0.10000000000E+04  0.10000000000E+04  0.00000000000E+00 0.  1.
    9000005    2    1    2  501    0  0.40752697446E+02 -0.23577762285E+02 -0.90152845387E+03  0.90275975857E+03  0.22215592047E+01 0.  0.
         13    1    3    3    0    0  0.19799241276E+02 -0.12688022216E+02 -0.44392781267E+03  0.44455022070E+03  0.00000000000E+00 0.  1.
          1    1    3    3  501    0  0.20953456170E+02 -0.10889740069E+02 -0.45760064121E+03  0.45820953787E+03  0.00000000000E+00 0.  1.
         -1    1    1    2    0  502 -0.40752697446E+02  0.23577762285E+02 -0.92192736615E+02  0.10351905094E+03  0.00000000000E+00 0. -1.
<mgrwt>
<rscale>  1 0.30000000E+03</rscale>
<asrwt>0</asrwt>
<pdfrwt beam="1">  1       21 0.22832083E-01 0.30000000E+03</pdfrwt>
<pdfrwt beam="2">0</pdfrwt>
<totfact> 0.18604580E+03</totfact>
</mgrwt>
</event>
<event>
 6    1  0.1273846E-001  0.3000000E+03  0.7818608E-02  0.1093470E+00
         21   -1    0    0  501  502  0.00000000000E+00  0.00000000000E+00  0.15792888166E+01  0.15792888166E+01  0.00000000000E+00 0. -1.
         13   -1    0    0    0    0 -0.00000000000E+00 -0.00000000000E+00 -0.10000000000E+04  0.10000000000E+04  0.00000000000E+00 0.  1.
    9000005    2    1    2  501    0  0.34674321324E+02 -0.18643939453E+02 -0.56124554004E+03  0.56263506080E+03  0.34278854173E+01 0.  0.
         13    1    3    3    0    0  0.22916321603E+02 -0.12433818957E+02 -0.39404844594E+03  0.39491003456E+03  0.00000000000E+00 0.  1.
          1    1    3    3  501    0  0.11757999721E+02 -0.62101204960E+01 -0.16719709410E+03  0.16772502624E+03  0.00000000000E+00 0.  1.
         -3    1    1    2    0  502 -0.34674321324E+02  0.18643939453E+02 -0.43717517115E+03  0.43894422801E+03  0.00000000000E+00 0. -1.
<mgrwt>
<rscale>  1 0.30000000E+03</rscale>
<asrwt>0</asrwt>
<pdfrwt beam="1">  1       21 0.57428805E-02 0.30000000E+03</pdfrwt>
<pdfrwt beam="2">0</pdfrwt>
<totfact> 0.22723423E+04</totfact>
</mgrwt>
</event>
<event>
 6    1  0.1273846E-001  0.3000000E+03  0.7818608E-02  0.1093470E+00
         21   -1    0    0  501  502  0.00000000000E+00  0.00000000000E+00  0.25010766450E+01  0.25010766450E+01  0.00000000000E+00 0. -1.
         13   -1    0    0    0    0 -0.00000000000E+00 -0.00000000000E+00 -0.10000000000E+04  0.10000000000E+04  0.00000000000E+00 0.  1.
    9000005    2    1    2  501    0  0.24904158760E+02  0.36992062054E+02 -0.72508928141E+03  0.72646549416E+03  0.30030645932E+01 0.  0.
         13    1    3    3    0    0  0.16452501821E+02  0.22753950769E+02 -0.47382942439E+03  0.47466066880E+03  0.00000000000E+00 0.  1.
          3    1    3    3  501    0  0.84516569383E+01  0.14238111285E+02 -0.25125985702E+03  0.25180482535E+03  0.00000000000E+00 0.  1.
         -3    1    1    2    0  502 -0.24904158760E+02 -0.36992062054E+02 -0.27240964194E+03  0.27603558249E+03  0.00000000000E+00 0. -1.
<mgrwt>
<rscale>  1 0.30000000E+03</rscale>
<asrwt>0</asrwt>
<pdfrwt beam="1">  1       21 0.90948433E-02 0.30000000E+03</pdfrwt>
<pdfrwt beam="2">0</pdfrwt>
<totfact> 0.10187031E+04</totfact>
</mgrwt>
</event>
<event>
 6    1  0.1273846E-001  0.3000000E+03  0.7818608E-02  0.1093470E+00
         21   -1    0    0  501  502  0.00000000000E+00  0.00000000000E+00  0.15865791418E+01  0.15865791418E+01  0.00000000000E+00 0. -1.
         13   -1    0    0    0    0 -0.00000000000E+00 -0.00000000000E+00 -0.10000000000E+04  0.10000000000E+04  0.00000000000E+00 0.  1.
    9000005    2    1    2  501    0 -0.34036967971E+02  0.87029925090E+01 -0.27169053310E+03  0.27401499307E+03  0.58492207783E+01 0.  0.
         13    1    3    3    0    0 -0.30145216466E+02  0.59871172965E+01 -0.24276738098E+03  0.24470508968E+03  0.00000000000E+00 0.  1.
          1    1    3    3  501    0 -0.38917515053E+01  0.27158752125E+01 -0.28923152119E+02  0.29309903385E+02  0.00000000000E+00 0.  1.
         -3    1    1    2    0  502  0.34036967971E+02 -0.87029925090E+01 -0.72672288776E+03  0.72757158608E+03  0.00000000000E+00 0. -1.
<mgrwt>
<rscale>  1 0.30000000E+03</rscale>
<asrwt>0</asrwt>
<pdfrwt beam="1">  1       21 0.57693909E-02 0.30000000E+03</pdfrwt>
<pdfrwt beam="2">0</pdfrwt>
<totfact> 0.22544026E+04</totfact>
</mgrwt>
</event>
<event>
 6    1  0.1273846E-001  0.3000000E+03  0.7818608E-02  0.1093470E+00
         21   -1    0    0  501  502  0.00000000000E+00  0.00000000000E+00  0.40989984695E+01  0.40989984695E+01  0.00000000000E+00 0. -1.
         13   -1    0    0    0    0 -0.00000000000E+00 -0.00000000000E+00 -0.10000000000E+04  0.10000000000E+04  0.00000000000E+00 0.  1.
    9000005    2    1    2  501    0 -0.54582186573E+02 -0.24743720891E+02 -0.67371309543E+03  0.67638492545E+03  0.39705935966E+01 0.  0.
         13    1    3    3    0    0 -0.41367347546E+02 -0.17868607543E+02 -0.52282385325E+03  0.52476216147E+03  0.00000000000E+00 0.  1.
          1    1    3    3  501    0 -0.13214839028E+02 -0.68751133489E+01 -0.15088924218E+03  0.15162276399E+03  0.00000000000E+00 0.  1.
         -3    1    1    2    0  502  0.54582186573E+02  0.24743720891E+02 -0.32218790610E+03  0.32771407302E+03  0.00000000000E+00 0. -1.
<mgrwt>
<rscale>  1 0.30000000E+03</rscale>
<asrwt>0</asrwt>
<pdfrwt beam="1">  1       21 0.14905480E-01 0.30000000E+03</pdfrwt>
<pdfrwt beam="2">0</pdfrwt>
<totfact> 0.41664814E+03</totfact>
</mgrwt>
</event>
<event>
 6    1  0.1273846E-001  0.3000000E+03  0.7818608E-02  0.1093470E+00
         21   -1    0    0  501  502  0.00000000000E+00  0.00000000000E+00  0.17753404399E+01  0.17753404399E+01  0.00000000000E+00 0. -1.
         13   -1    0    0    0    0 -0.00000000000E+00 -0.00000000000E+00 -0.10000000000E+04  0.10000000000E+04  0.00000000000E+00 0.  1.
    9000005    2    1    2  501    0  0.17894902285E+02 -0.28418593878E+02 -0.80100028218E+03  0.80171210284E+03  0.36055211341E+01 0.  0.
         13    1    3    3    0    0  0.85278138407E+00 -0.31640131726E+01 -0.88860492177E+02  0.88920893414E+02  0.00000000000E+00 0.  1.
          1    1    3    3  501    0  0.17042120901E+02 -0.25254580705E+02 -0.71213979000E+03  0.71279120942E+03  0.00000000000E+00 0.  1.
         -3    1    1    2    0  502 -0.17894902285E+02  0.28418593878E+02 -0.19722437738E+03  0.20006323760E+03  0.00000000000E+00 0. -1.
<mgrwt>
<rscale>  1 0.30000000E+03</rscale>
<asrwt>0</asrwt>
<pdfrwt beam="1">  1       21 0.64557970E-02 0.30000000E+03</pdfrwt>
<pdfrwt beam="2">0</pdfrwt>
<totfact> 0.18568084E+04</totfact>
</mgrwt>
</event>
<event>
 6    1  0.1273846E-001  0.3000000E+03  0.7818608E-02  0.1093470E+00
         21   -1    0    0  501  502  0.00000000000E+00  0.00000000000E+00  0.54311471609E+01  0.54311471609E+01  0.00000000000E+00 0. -1.
         13   -1    0    0    0    0 -0.00000000000E+00 -0.00000000000E+00 -0.10000000000E+04  0.10000000000E+04  0.00000000000E+00 0.  1.
    9000005    2    1    2  501    0  0.38147274611E+02  0.52649866283E+02 -0.73369905149E+03  0.73658123320E+03  0.32236576073E+01 0.  0.
         13    1    3    3    0    0  0.17785299653E+02  0.27265640756E+02 -0.36952744378E+03  0.37095857418E+03  0.00000000000E+00 0.  1.
          3    1    3    3  501    0  0.20361974957E+02  0.25384225527E+02 -0.36417160770E+03  0.36562265902E+03  0.00000000000E+00 0.  1.
         -1    1    1    2    0  502 -0.38147274611E+02 -0.52649866283E+02 -0.26086980135E+03  0.26884991396E+03  0.00000000000E+00 0. -1.
<mgrwt>
<rscale>  1 0.30000000E+03</rscale>
<asrwt>0</asrwt>
<pdfrwt beam="1">  1       21 0.19749668E-01 0.30000000E+03</pdfrwt>
<pdfrwt beam="2">0</pdfrwt>
<totfact> 0.24575552E+03</totfact>
</mgrwt>
</event>
<event>
 6    1  0.1273846E-001  0.3000000E+03  0.7818608E-02  0.1093470E+00
         21   -1    0    0  501  502  0.00000000000E+00  0.00000000000E+00  0.22143208734E+01  0.22143208734E+01  0.00000000000E+00 0. -1.
         13   -1    0    0    0    0 -0.00000000000E+00 -0.00000000000E+00 -0.10000000000E+04  0.10000000000E+04  0.00000000000E+00 0.  1.
    9000005    2    1    2  501    0  0.32395207805E+02  0.82905164198E+01 -0.85122366209E+03  0.85188599025E+03  0.31361321669E+01 0.  0.
         13    1    3    3    0    0  0.26175069639E+01  0.58374251730E+00 -0.93071792860E+02  0.93110422210E+02  0.00000000000E+00 0.  1.
          1    1    3    3  501    0  0.29777700841E+02  0.77067739025E+01 -0.75815186923E+03  0.75877556804E+03  0.00000000000E+00 0.  1.
         -3    1    1    2    0  502 -0.32395207805E+02 -0.82905164198E+01 -0.14656201704E+03  0.15032833063E+03  0.00000000000E+00 0. -1.
<mgrwt>
<rscale>  1 0.30000000E+03</rscale>
<asrwt>0</asrwt>
<pdfrwt beam="1">  1       21 0.80520929E-02 0.30000000E+03</pdfrwt>
<pdfrwt beam="2">0</pdfrwt>
<totfact> 0.12629043E+04</totfact>
</mgrwt>
</event>
<event>
 6    1  0.1273846E-001  0.3000000E+03  0.7818608E-02  0.1093470E+00
         21   -1    0    0  501  502  0.00000000000E+00  0.00000000000E+00  0.15417172407E+01  0.15417172407E+01  0.00000000000E+00 0. -1.
         13   -1    0    0    0    0 -0.00000000000E+00 -0.00000000000E+00 -0.10000000000E+04  0.10000000000E+04  0.00000000000E+00 0.  1.
    9000005    2    1    2  501    0  0.28641753372E+02 -0.15347547877E+02 -0.22015637760E+03  0.22256177344E+03  0.30025220594E+01 0.  0.
         13    1    3    3    0    0  0.22446374245E+02 -0.12169159399E+02 -0.18083133269E+03  0.18262502304E+03  0.00000000000E+00 0.  1.
          3    1    3    3  501    0  0.61953791269E+01 -0.31783884774E+01 -0.39325044908E+02  0.39936750404E+02  0.00000000000E+00 0.  1.
         -1    1    1    2    0  502 -0.28641753372E+02  0.15347547877E+02 -0.77830190516E+03  0.77897994380E+03  0.00000000000E+00 0. -1.
<mgrwt>
<rscale>  1 0.30000000E+03</rscale>
<asrwt>0</asrwt>
<pdfrwt beam="1">  1       21 0.56062563E-02 0.30000000E+03</pdfrwt>
<pdfrwt beam="2">0</pdfrwt>
<totfact> 0.23683609E+04</totfact>
</mgrwt>
</event>
<event>
 6    1  0.1273846E-001  0.3000000E+03  0.7818608E-02  0.1093470E+00
         21   -1    0    0  501  502  0.00000000000E+00  0.00000000000E+00  0.17120485127E+01  0.17120485127E+01  0.00000000000E+00 0. -1.
         13   -1    0    0    0    0 -0.00000000000E+00 -0.00000000000E+00 -0.10000000000E+04  0.10000000000E+04  0.00000000000E+00 0.  1.
    9000005    2    1    2  501    0  0.35859805874E+02  0.14164520570E+02 -0.67959757994E+03  0.68069785531E+03  0.31843749222E+01 0.  0.
         13    1    3    3    0    0  0.74515423395E+01  0.37216001504E+01 -0.16679707653E+03  0.16700491170E+03  0.00000000000E+00 0.  1.
          1    1    3    3  501    0  0.28408263535E+02  0.10442920419E+02 -0.51280050341E+03  0.51369294361E+03  0.00000000000E+00 0.  1.
         -1    1    1    2    0  502 -0.35859805874E+02 -0.14164520570E+02 -0.31869037155E+03  0.32101419320E+03  0.00000000000E+00 0. -1.
<mgrwt>
<rscale>  1 0.30000000E+03</rscale>
<asrwt>0</asrwt>
<pdfrwt beam="1">  1       21 0.62256441E-02 0.30000000E+03</pdfrwt>
<pdfrwt beam="2">0</pdfrwt>
<totfact> 0.19770882E+04</totfact>
</mgrwt>
</event>
<event>
 6    1  0.1273846E-001  0.3000000E+03  0.7818608E-02  0.1093470E+00
         21   -1    0    0  501  502  0.00000000000E+00  0.00000000000E+00  0.15566418851E+01  0.15566418851E+01  0.00000000000E+00 0. -1.
         13   -1    0    0    0    0 -0.00000000000E+00 -0.00000000000E+00 -0.10000000000E+04  0.10000000000E+04  0.00000000000E+00 0.  1.
    9000005    2    1    2  501    0  0.36181030273E+02 -0.15105015589E+02 -0.54360501309E+03  0.54503156201E+03  0.39705019642E+01 0.  0.
         13    1    3    3    0    0  0.24692620536E+02 -0.12278822339E+02 -0.38008778495E+03  0.38108689200E+03  0.00000000000E+00 0.  1.
          3    1    3    3  501    0  0.11488409737E+02 -0.28261932496E+01 -0.16351722814E+03  0.16394467001E+03  0.00000000000E+00 0.  1.
         -3    1    1    2    0  502 -0.36181030273E+02  0.15105015589E+02 -0.45483834503E+03  0.45652507988E+03  0.00000000000E+00 0. -1.
<mgrwt>
<rscale>  1 0.30000000E+03</rscale>
<asrwt>0</asrwt>
<pdfrwt beam="1">  1       21 0.56605279E-02 0.30000000E+03</pdfrwt>
<pdfrwt beam="2">0</pdfrwt>
<totfact> 0.23294875E+04</totfact>
</mgrwt>
</event>
<event>
 6    1  0.1273846E-001  0.3000000E+03  0.7818608E-02  0.1093470E+00
         21   -1    0    0  501  502  0.00000000000E+00  0.00000000000E+00  0.24836963991E+01  0.24836963991E+01  0.00000000000E+00 0. -1.
         13   -1    0    0    0    0 -0.00000000000E+00 -0.00000000000E+00 -0.10000000000E+04  0.10000000000E+04  0.00000000000E+00 0.  1.
    9000005    2    1    2  501    0  0.26246305500E+02  0.23057155108E+02 -0.85598092715E+03  0.85670041978E+03  0.34293813628E+01 0.  0.
         13    1    3    3    0    0  0.69358310185E+01  0.62076734429E+01 -0.26695209144E+03  0.26711432025E+03  0.00000000000E+00 0.  1.
          3    1    3    3  501    0  0.19310474481E+02  0.16849481665E+02 -0.58902883571E+03  0.58958609953E+03  0.00000000000E+00 0.  1.
         -1    1    1    2    0  502 -0.26246305500E+02 -0.23057155108E+02 -0.14153537645E+03  0.14578327662E+03  0.00000000000E+00 0. -1.
<mgrwt>
<rscale>  1 0.30000000E+03</rscale>
<asrwt>0</asrwt>
<pdfrwt beam="1">  1       21 0.90316423E-02 0.30000000E+03</pdfrwt>
<pdfrwt beam="2">0</pdfrwt>
<totfact> 0.10313750E+04</totfact>
</mgrwt>
</event>
<event>
 6    1  0.1273846E-001  0.3000000E+03  0.7818608E-02  0.1093470E+00
         21   -1    0    0  501  502  0.00000000000E+00  0.00000000000E+00  0.25765244129E+01  0.25765244129E+01  0.00000000000E+00 0. -1.
         13   -1    0    0    0    0 -0.00000000000E+00 -0.00000000000E+00 -0.10000000000E+04  0.10000000000E+04  0.00000000000E+00 0.  1.
    9000005    2    1    2  501    0  0.24023450913E+02  0.32228664250E+02 -0.80456641261E+03  0.80557484997E+03  0.28131141302E+01 0.  0.
         13    1    3    3    0    0  0.11174462516E+02  0.13420748393E+02 -0.36991444790E+03  0.37032645580E+03  0.00000000000E+00 0.  1.
          1    1    3    3  501    0  0.12848988397E+02  0.18807915857E+02 -0.43465196470E+03  0.43524839416E+03  0.00000000000E+00 0.  1.
         -1    1    1    2    0  502 -0.24023450913E+02 -0.32228664250E+02 -0.19285706298E+03  0.19700167445E+03  0.00000000000E+00 0. -1.
<mgrwt>
<rscale>  1 0.30000000E+03</rscale>
<asrwt>0</asrwt>
<pdfrwt beam="1">  1       21 0.93691994E-02 0.30000000E+03</pdfrwt>
<pdfrwt beam="2">0</pdfrwt>
<totfact> 0.96632790E+03</totfact>
</mgrwt>
</event>
<event>
 6    1  0.1273846E-001  0.3000000E+03  0.7818608E-02  0.1093470E+00
         21   -1    0    0  501  502  0.00000000000E+00  0.00000000000E+00  0.13159754337E+01  0.13159754337E+01  0.00000000000E+00 0. -1.
         13   -1    0    0    0    0 -0.00000000000E+00 -0.00000000000E+00 -0.10000000000E+04  0.10000000000E+04  0.00000000000E+00 0.  1.
    9000005    2    1    2  501    0 -0.29357463188E+02  0.73544102624E+01 -0.77458794844E+03  0.77518548362E+03  0.31774428580E+01 0.  0.
         13    1    3    3    0    0 -0.28116209704E+02  0.64626870286E+01 -0.74449051953E+03  0.74504927438E+03  0.00000000000E+00 0.  1.
          3    1    3    3  501    0 -0.12412534833E+01  0.89172323382E+00 -0.30097428910E+02  0.30136209243E+02  0.00000000000E+00 0.  1.
         -3    1    1    2    0  502  0.29357463188E+02 -0.73544102624E+01 -0.22409607612E+03  0.22613049181E+03  0.00000000000E+00 0. -1.
<mgrwt>
<rscale>  1 0.30000000E+03</rscale>
<asrwt>0</asrwt>
<pdfrwt beam="1">  1       21 0.47853753E-02 0.30000000E+03</pdfrwt>
<pdfrwt beam="2">0</pdfrwt>
<totfact> 0.31039282E+04</totfact>
</mgrwt>
</event>
<event>
 6    1  0.1273846E-001  0.3000000E+03  0.7818608E-02  0.1093470E+00
         21   -1    0    0  501  502  0.00000000000E+00  0.00000000000E+00  0.11032198488E+01  0.11032198488E+01  0.00000000000E+00 0. -1.
         13   -1    0    0    0    0 -0.00000000000E+00 -0.00000000000E+00 -0.10000000000E+04  0.10000000000E+04  0.00000000000E+00 0.  1.
    9000005    2    1    2  501    0  0.30475102113E+02 -0.11272613129E+02 -0.59689903698E+03  0.59779441859E+03  0.37286589946E+01 0.  0.
         13    1    3    3    0    0  0.15951230087E+02 -0.48502923250E+01 -0.27671981521E+03  0.27722161388E+03  0.00000000000E+00 0.  1.
          3    1    3    3  501    0  0.14523872026E+02 -0.64223208044E+01 -0.32017922177E+03  0.32057280470E+03  0.00000000000E+00 0.  1.
         -3    1    1    2    0  502 -0.30475102113E+02  0.11272613129E+02 -0.40199774318E+03  0.40330880126E+03  0.00000000000E+00 0. -1.
<mgrwt>
<rscale>  1 0.30000000E+03</rscale>
<asrwt>0</asrwt>
<pdfrwt beam="1">  1       21 0.40117170E-02 0.30000000E+03</pdfrwt>
<pdfrwt beam="2">0</pdfrwt>
<totfact> 0.41840703E+04</totfact>
</mgrwt>
</event>
<event>
 6    1  0.1273846E-001  0.3000000E+03  0.7818608E-02  0.1093470E+00
         21   -1    0    0  501  502  0.00000000000E+00  0.00000000000E+00  0.31597699632E+01  0.31597699632E+01  0.00000000000E+00 0. -1.
         13   -1    0    0    0    0 -0.00000000000E+00 -0.00000000000E+00 -0.10000000000E+04  0.10000000000E+04  0.00000000000E+00 0.  1.
    9000005    2    1    2  501    0  0.25403524379E+02 -0.20857819861E+02 -0.90470272256E+03  0.90533488569E+03  0.79907026238E+01 0.  0.
         13    1    3    3    0    0  0.50620965229E+01 -0.27123908215E+01 -0.24832326821E+03  0.24838966850E+03  0.00000000000E+00 0.  1.
          1    1    3    3  501    0  0.20341427856E+02 -0.18145429039E+02 -0.65637945435E+03  0.65694521718E+03  0.00000000000E+00 0.  1.
         -3    1    1    2    0  502 -0.25403524379E+02  0.20857819861E+02 -0.92137507475E+02  0.97824884277E+02  0.00000000000E+00 0. -1.
<mgrwt>
<rscale>  1 0.30000000E+03</rscale>
<asrwt>0</asrwt>
<pdfrwt beam="1">  1       21 0.11490097E-01 0.30000000E+03</pdfrwt>
<pdfrwt beam="2">0</pdfrwt>
<totfact> 0.67039791E+03</totfact>
</mgrwt>
</event>
<event>
 6    1  0.1273846E-001  0.3000000E+03  0.7818608E-02  0.1093470E+00
         21   -1    0    0  501  502  0.00000000000E+00  0.00000000000E+00  0.28003139315E+01  0.28003139315E+01  0.00000000000E+00 0. -1.
         13   -1    0    0    0    0 -0.00000000000E+00 -0.00000000000E+00 -0.10000000000E+04  0.10000000000E+04  0.00000000000E+00 0.  1.
    9000005    2    1    2  501    0  0.35308624763E+02 -0.11128206067E+02 -0.85672126633E+03  0.85752566933E+03  0.28998997612E+01 0.  0.
         13    1    3    3    0    0  0.18673558022E+02 -0.70383242693E+01 -0.48258577266E+03  0.48299820678E+03  0.00000000000E+00 0.  1.
          3    1    3    3  501    0  0.16635066741E+02 -0.40898817976E+01 -0.37413549367E+03  0.37452746255E+03  0.00000000000E+00 0.  1.
         -1    1    1    2    0  502 -0.35308624763E+02  0.11128206067E+02 -0.14047841974E+03  0.14527464460E+03  0.00000000000E+00 0. -1.
<mgrwt>
<rscale>  1 0.30000000E+03</rscale>
<asrwt>0</asrwt>
<pdfrwt beam="1">  1       21 0.10182981E-01 0.30000000E+03</pdfrwt>
<pdfrwt beam="2">0</pdfrwt>
<totfact> 0.83287704E+03</totfact>
</mgrwt>
</event>
<event>
 6    1  0.1273846E-001  0.3000000E+03  0.7818608E-02  0.1093470E+00
         21   -1    0    0  501  502  0.00000000000E+00  0.00000000000E+00  0.40097521505E+01  0.40097521505E+01  0.00000000000E+00 0. -1.
         13   -1    0    0    0    0 -0.00000000000E+00 -0.00000000000E+00 -0.10000000000E+04  0.10000000000E+04  0.00000000000E+00 0.  1.
    9000005    2    1    2  501    0 -0.85309955119E+01  0.45716257402E+02 -0.83856770338E+03  0.83986161301E+03  0.29969624457E+01 0.  0.
         13    1    3    3    0    0 -0.83668002428E+01  0.45659082833E+02 -0.83428301085E+03  0.83557339437E+03  0.00000000000E+00 0.  1.
          3    1    3    3  501    0 -0.16419526916E+00  0.57174569519E-01 -0.42846925348E+01  0.42882186436E+01  0.00000000000E+00 0.  1.
         -1    1    1    2    0  502  0.85309955119E+01 -0.45716257402E+02 -0.15742254447E+03  0.16414813914E+03  0.00000000000E+00 0. -1.
<mgrwt>
<rscale>  1 0.30000000E+03</rscale>
<asrwt>0</asrwt>
<pdfrwt beam="1">  1       21 0.14580948E-01 0.30000000E+03</pdfrwt>
<pdfrwt beam="2">0</pdfrwt>
<totfact> 0.43393922E+03</totfact>
</mgrwt>
</event>
<event>
 6    1  0.1273846E-001  0.3000000E+03  0.7818608E-02  0.1093470E+00
         21   -1    0    0  501  502  0.00000000000E+00  0.00000000000E+00  0.15727003825E+01  0.15727003825E+01  0.00000000000E+00 0. -1.
         13   -1    0    0    0    0 -0.00000000000E+00 -0.00000000000E+00 -0.10000000000E+04  0.10000000000E+04  0.00000000000E+00 0.  1.
    9000005    2    1    2  501    0  0.32626001998E+02 -0.22387494227E+02 -0.51243477537E+03  0.51397205485E+03  0.34954611989E+01 0.  0.
         13    1    3    3    0    0  0.68531205443E+01 -0.31040118502E+01 -0.10185006588E+03  0.10212754805E+03  0.00000000000E+00 0.  1.
          3    1    3    3  501    0  0.25772881454E+02 -0.19283482377E+02 -0.41058470949E+03  0.41184450680E+03  0.00000000000E+00 0.  1.
         -1    1    1    2    0  502 -0.32626001998E+02  0.22387494227E+02 -0.48599252425E+03  0.48760064554E+03  0.00000000000E+00 0. -1.
<mgrwt>
<rscale>  1 0.30000000E+03</rscale>
<asrwt>0</asrwt>
<pdfrwt beam="1">  1       21 0.57189225E-02 0.30000000E+03</pdfrwt>
<pdfrwt beam="2">0</pdfrwt>
<totfact> 0.22887435E+04</totfact>
</mgrwt>
</event>
<event>
 6    1  0.1273846E-001  0.3000000E+03  0.7818608E-02  0.1093470E+00
         21   -1    0    0  501  502  0.00000000000E+00  0.00000000000E+00  0.22648921111E+01  0.22648921111E+01  0.00000000000E+00 0. -1.
         13   -1    0    0    0    0 -0.00000000000E+00 -0.00000000000E+00 -0.10000000000E+04  0.10000000000E+04  0.00000000000E+00 0.  1.
    9000005    2    1    2  501    0  0.37636139878E+02  0.23620214808E+02 -0.67605731850E+03  0.67753270436E+03  0.47617238066E+01 0.  0.
         13    1    3    3    0    0  0.15916633793E+02  0.86150235481E+01 -0.24474890031E+03  0.24541715928E+03  0.00000000000E+00 0.  1.
          3    1    3    3  501    0  0.21719506085E+02  0.15005191260E+02 -0.43130841818E+03  0.43211554508E+03  0.00000000000E+00 0.  1.
         -3    1    1    2    0  502 -0.37636139878E+02 -0.23620214808E+02 -0.32167778939E+03  0.32473218775E+03  0.00000000000E+00 0. -1.
<mgrwt>
<rscale>  1 0.30000000E+03</rscale>
<asrwt>0</asrwt>
<pdfrwt beam="1">  1       21 0.82359887E-02 0.30000000E+03</pdfrwt>
<pdfrwt beam="2">0</pdfrwt>
<totfact> 0.12137429E+04</totfact>
</mgrwt>
</event>
<event>
 6    1  0.1273846E-001  0.3000000E+03  0.7818608E-02  0.1093470E+00
         21   -1    0    0  501  502  0.00000000000E+00  0.00000000000E+00  0.10111962412E+01  0.10111962412E+01  0.00000000000E+00 0. -1.
         13   -1    0    0    0    0 -0.00000000000E+00 -0.00000000000E+00 -0.10000000000E+04  0.10000000000E+04  0.00000000000E+00 0.  1.
    9000005    2    1    2  501    0 -0.17539301720E+02 -0.25348007273E+02 -0.45710254374E+03  0.45824893947E+03  0.99602437133E+01 0.  0.
         13    1    3    3    0    0 -0.32263264745E+01 -0.10258336678E+02 -0.11018495562E+03  0.11070847799E+03  0.00000000000E+00 0.  1.
          3    1    3    3  501    0 -0.14312975246E+02 -0.15089670595E+02 -0.34691758812E+03  0.34754046148E+03  0.00000000000E+00 0.  1.
         -3    1    1    2    0  502  0.17539301720E+02  0.25348007273E+02 -0.54188626002E+03  0.54276225677E+03  0.00000000000E+00 0. -1.
<mgrwt>
<rscale>  1 0.30000000E+03</rscale>
<asrwt>0</asrwt>
<pdfrwt beam="1">  1       21 0.36770850E-02 0.30000000E+03</pdfrwt>
<pdfrwt beam="2">0</pdfrwt>
<totfact> 0.48437843E+04</totfact>
</mgrwt>
</event>
<event>
 6    1  0.1273846E-001  0.3000000E+03  0.7818608E-02  0.1093470E+00
         21   -1    0    0  501  502  0.00000000000E+00  0.00000000000E+00  0.11657306744E+01  0.11657306744E+01  0.00000000000E+00 0. -1.
         13   -1    0    0    0    0 -0.00000000000E+00 -0.00000000000E+00 -0.10000000000E+04  0.10000000000E+04  0.00000000000E+00 0.  1.
    9000005    2    1    2  501    0  0.31268668302E+00  0.31475740741E+02 -0.69127778728E+03  0.69200265125E+03  0.34453052739E+01 0.  0.
         13    1    3    3    0    0  0.10242687861E+01  0.29293583423E+02 -0.62901613302E+03  0.62969870474E+03  0.00000000000E+00 0.  1.
          3    1    3    3  501    0 -0.71158210307E+00  0.21821573182E+01 -0.62261654260E+02  0.62303946511E+02  0.00000000000E+00 0.  1.
         -3    1    1    2    0  502 -0.31268668302E+00 -0.31475740741E+02 -0.30755648205E+03  0.30916307942E+03  0.00000000000E+00 0. -1.
<mgrwt>
<rscale>  1 0.30000000E+03</rscale>
<asrwt>0</asrwt>
<pdfrwt beam="1">  1       21 0.42390296E-02 0.30000000E+03</pdfrwt>
<pdfrwt beam="2">0</pdfrwt>
<totfact> 0.38126093E+04</totfact>
</mgrwt>
</event>
<event>
 6    1  0.1273846E-001  0.3000000E+03  0.7818608E-02  0.1093470E+00
         21   -1    0    0  501  502  0.00000000000E+00  0.00000000000E+00  0.13283965675E+01  0.13283965675E+01  0.00000000000E+00 0. -1.
         13   -1    0    0    0    0 -0.00000000000E+00 -0.00000000000E+00 -0.10000000000E+04  0.10000000000E+04  0.00000000000E+00 0.  1.
    9000005    2    1    2  501    0 -0.13662030453E+02  0.31880786682E+02 -0.35065208601E+03  0.35238130274E+03  0.35582941385E+01 0.  0.
         13    1    3    3    0    0 -0.67938465900E+01  0.11467092867E+02 -0.13456441434E+03  0.13522289812E+03  0.00000000000E+00 0.  1.
          3    1    3    3  501    0 -0.68681838629E+01  0.20413693815E+02 -0.21608767168E+03  0.21715840462E+03  0.00000000000E+00 0.  1.
         -3    1    1    2    0  502  0.13662030453E+02 -0.31880786682E+02 -0.64801951742E+03  0.64894709383E+03  0.00000000000E+00 0. -1.
<mgrwt>
<rscale>  1 0.30000000E+03</rscale>
<asrwt>0</asrwt>
<pdfrwt beam="1">  1       21 0.48305432E-02 0.30000000E+03</pdfrwt>
<pdfrwt beam="2">0</pdfrwt>
<totfact> 0.30547010E+04</totfact>
</mgrwt>
</event>
<event>
 6    1  0.1273846E-001  0.3000000E+03  0.7818608E-02  0.1093470E+00
         21   -1    0    0  501  502  0.00000000000E+00  0.00000000000E+00  0.44181977855E+01  0.44181977855E+01  0.00000000000E+00 0. -1.
         13   -1    0    0    0    0 -0.00000000000E+00 -0.00000000000E+00 -0.10000000000E+04  0.10000000000E+04  0.00000000000E+00 0.  1.
    9000005    2    1    2  501    0 -0.53578035035E+02  0.37824062322E+02 -0.57785407364E+03  0.58157340268E+03  0.33206554245E+01 0.  0.
         13    1    3    3    0    0 -0.37041747873E+02  0.26040313251E+02 -0.41224277600E+03  0.41472194946E+03  0.00000000000E+00 0.  1.
          3    1    3    3  501    0 -0.16536287162E+02  0.11783749070E+02 -0.16561129764E+03  0.16685145322E+03  0.00000000000E+00 0.  1.
         -3    1    1    2    0  502  0.53578035035E+02 -0.37824062322E+02 -0.41772772857E+03  0.42284479511E+03  0.00000000000E+00 0. -1.
<mgrwt>
<rscale>  1 0.30000000E+03</rscale>
<asrwt>0</asrwt>
<pdfrwt beam="1">  1       21 0.16066208E-01 0.30000000E+03</pdfrwt>
<pdfrwt beam="2">0</pdfrwt>
<totfact> 0.36246540E+03</totfact>
</mgrwt>
</event>
<event>
 6    1  0.1273846E-001  0.3000000E+03  0.7818608E-02  0.1093470E+00
         21   -1    0    0  501  502  0.00000000000E+00  0.00000000000E+00  0.13837542461E+01  0.13837542461E+01  0.00000000000E+00 0. -1.
         13   -1    0    0    0    0 -0.00000000000E+00 -0.00000000000E+00 -0.10000000000E+04  0.10000000000E+04  0.00000000000E+00 0.  1.
    9000005    2    1    2  501    0  0.72625224635E+01 -0.30425346380E+02 -0.76893699379E+03  0.76958426176E+03  0.41700830224E+01 0.  0.
         13    1    3    3    0    0  0.70583657985E+00 -0.16088222014E+01 -0.25720731386E+02  0.25780662078E+02  0.00000000000E+00 0.  1.
          3    1    3    3  501    0  0.65566858837E+01 -0.28816524179E+02 -0.74321626240E+03  0.74380359968E+03  0.00000000000E+00 0.  1.
         -3    1    1    2    0  502 -0.72625224635E+01  0.30425346380E+02 -0.22967925196E+03  0.23179949249E+03  0.00000000000E+00 0. -1.
<mgrwt>
<rscale>  1 0.30000000E+03</rscale>
<asrwt>0</asrwt>
<pdfrwt beam="1">  1       21 0.50318442E-02 0.30000000E+03</pdfrwt>
<pdfrwt beam="2">0</pdfrwt>
<totfact> 0.28494543E+04</totfact>
</mgrwt>
</event>
<event>
 6    1  0.1273846E-001  0.3000000E+03  0.7818608E-02  0.1093470E+00
         21   -1    0    0  501  502  0.00000000000E+00  0.00000000000E+00  0.36694428987E+01  0.36694428987E+01  0.00000000000E+00 0. -1.
         13   -1    0    0    0    0 -0.00000000000E+00 -0.00000000000E+00 -0.10000000000E+04  0.10000000000E+04  0.00000000000E+00 0.  1.
    9000005    2    1    2  501    0 -0.23824713862E+02  0.29545976300E+02 -0.88917507215E+03  0.88999059851E+03  0.32209934864E+01 0.  0.
         13    1    3    3    0    0 -0.89351150888E+01  0.12636707389E+02 -0.33334409045E+03  0.33370316944E+03  0.00000000000E+00 0.  1.
          1    1    3    3  501    0 -0.14889598774E+02  0.16909268911E+02 -0.55583098170E+03  0.55628742907E+03  0.00000000000E+00 0.  1.
         -3    1    1    2    0  502  0.23824713862E+02 -0.29545976300E+02 -0.10715548495E+03  0.11367884439E+03  0.00000000000E+00 0. -1.
<mgrwt>
<rscale>  1 0.30000000E+03</rscale>
<asrwt>0</asrwt>
<pdfrwt beam="1">  1       21 0.13343457E-01 0.30000000E+03</pdfrwt>
<pdfrwt beam="2">0</pdfrwt>
<totfact> 0.51071899E+03</totfact>
</mgrwt>
</event>
<event>
 6    1  0.1273846E-001  0.3000000E+03  0.7818608E-02  0.1093470E+00
         21   -1    0    0  501  502  0.00000000000E+00  0.00000000000E+00  0.44769729857E+01  0.44769729857E+01  0.00000000000E+00 0. -1.
         13   -1    0    0    0    0 -0.00000000000E+00 -0.00000000000E+00 -0.10000000000E+04  0.10000000000E+04  0.00000000000E+00 0.  1.
    9000005    2    1    2  501    0 -0.52371991764E+02  0.36505595020E+02 -0.64745099066E+03  0.65059899051E+03  0.32828581088E+01 0.  0.
         13    1    3    3    0    0 -0.10202263554E+02  0.60978244720E+01 -0.13065820520E+03  0.13119769903E+03  0.00000000000E+00 0.  1.
          3    1    3    3  501    0 -0.42169728211E+02  0.30407770548E+02 -0.51679278546E+03  0.51940129148E+03  0.00000000000E+00 0.  1.
         -1    1    1    2    0  502  0.52371991764E+02 -0.36505595020E+02 -0.34807203636E+03  0.35387798248E+03  0.00000000000E+00 0. -1.
<mgrwt>
<rscale>  1 0.30000000E+03</rscale>
<asrwt>0</asrwt>
<pdfrwt beam="1">  1       21 0.16279936E-01 0.30000000E+03</pdfrwt>
<pdfrwt beam="2">0</pdfrwt>
<totfact> 0.35363932E+03</totfact>
</mgrwt>
</event>
<event>
 6    1  0.1273846E-001  0.3000000E+03  0.7818608E-02  0.1093470E+00
         21   -1    0    0  501  502  0.00000000000E+00  0.00000000000E+00  0.10157581453E+01  0.10157581453E+01  0.00000000000E+00 0. -1.
         13   -1    0    0    0    0 -0.00000000000E+00 -0.00000000000E+00 -0.10000000000E+04  0.10000000000E+04  0.00000000000E+00 0.  1.
    9000005    2    1    2  501    0 -0.23387463828E+02 -0.20855049183E+02 -0.43771084610E+03  0.43886832968E+03  0.57200933205E+01 0.  0.
         13    1    3    3    0    0 -0.73128340865E+01 -0.77249022663E+01 -0.18558528540E+03  0.18588988626E+03  0.00000000000E+00 0.  1.
          3    1    3    3  501    0 -0.16074629741E+02 -0.13130146917E+02 -0.25212556070E+03  0.25297844342E+03  0.00000000000E+00 0.  1.
         -3    1    1    2    0  502  0.23387463828E+02  0.20855049183E+02 -0.56127339576E+03  0.56214742846E+03  0.00000000000E+00 0. -1.
<mgrwt>
<rscale>  1 0.30000000E+03</rscale>
<asrwt>0</asrwt>
<pdfrwt beam="1">  1       21 0.36936738E-02 0.30000000E+03</pdfrwt>
<pdfrwt beam="2">0</pdfrwt>
<totfact> 0.48073316E+04</totfact>
</mgrwt>
</event>
<event>
 6    1  0.1273846E-001  0.3000000E+03  0.7818608E-02  0.1093470E+00
         21   -1    0    0  501  502  0.00000000000E+00  0.00000000000E+00  0.12847119669E+01  0.12847119669E+01  0.00000000000E+00 0. -1.
         13   -1    0    0    0    0 -0.00000000000E+00 -0.00000000000E+00 -0.10000000000E+04  0.10000000000E+04  0.00000000000E+00 0.  1.
    9000005    2    1    2  501    0 -0.19141625473E+02  0.25648705950E+02 -0.30034598587E+03  0.30218247328E+03  0.90707211785E+01 0.  0.
         13    1    3    3    0    0 -0.18900843445E+02  0.23654184549E+02 -0.25487931761E+03  0.25667144149E+03  0.00000000000E+00 0.  1.
          3    1    3    3  501    0 -0.24078202843E+00  0.19945214013E+01 -0.45466668263E+02  0.45511031790E+02  0.00000000000E+00 0.  1.
         -1    1    1    2    0  502  0.19141625473E+02 -0.25648705950E+02 -0.69836930216E+03  0.69910223869E+03  0.00000000000E+00 0. -1.
<mgrwt>
<rscale>  1 0.30000000E+03</rscale>
<asrwt>0</asrwt>
<pdfrwt beam="1">  1       21 0.46716897E-02 0.30000000E+03</pdfrwt>
<pdfrwt beam="2">0</pdfrwt>
<totfact> 0.32334746E+04</totfact>
</mgrwt>
</event>
<event>
 6    1  0.1273846E-001  0.3000000E+03  0.7818608E-02  0.1093470E+00
         21   -1    0    0  501  502  0.00000000000E+00  0.00000000000E+00  0.12388260852E+01  0.12388260852E+01  0.00000000000E+00 0. -1.
         13   -1    0    0    0    0 -0.00000000000E+00 -0.00000000000E+00 -0.10000000000E+04  0.10000000000E+04  0.00000000000E+00 0.  1.
    9000005    2    1    2  501    0  0.66140708292E+01  0.32951912142E+02 -0.64547177605E+03  0.64635437575E+03  0.32543703103E+01 0.  0.
         13    1    3    3    0    0  0.16010464684E+01  0.10068232240E+02 -0.22436347377E+03  0.22459497103E+03  0.00000000000E+00 0.  1.
          3    1    3    3  501    0  0.50130243607E+01  0.22883679902E+02 -0.42110830228E+03  0.42175940472E+03  0.00000000000E+00 0.  1.
         -1    1    1    2    0  502 -0.66140708292E+01 -0.32951912142E+02 -0.35328939786E+03  0.35488445033E+03  0.00000000000E+00 0. -1.
<mgrwt>
<rscale>  1 0.30000000E+03</rscale>
<asrwt>0</asrwt>
<pdfrwt beam="1">  1       21 0.45048316E-02 0.30000000E+03</pdfrwt>
<pdfrwt beam="2">0</pdfrwt>
<totfact> 0.34395496E+04</totfact>
</mgrwt>
</event>
<event>
 6    1  0.1273846E-001  0.3000000E+03  0.7818608E-02  0.1093470E+00
         21   -1    0    0  501  502  0.00000000000E+00  0.00000000000E+00  0.36113791963E+01  0.36113791963E+01  0.00000000000E+00 0. -1.
         13   -1    0    0    0    0 -0.00000000000E+00 -0.00000000000E+00 -0.10000000000E+04  0.10000000000E+04  0.00000000000E+00 0.  1.
    9000005    2    1    2  501    0  0.17402229781E+02  0.45869284771E+02 -0.78779547387E+03  0.78932668578E+03  0.28424180441E+01 0.  0.
         13    1    3    3    0    0  0.14654650581E+02  0.36772329123E+02 -0.62013050624E+03  0.62139263573E+03  0.00000000000E+00 0.  1.
          1    1    3    3  501    0  0.27475791994E+01  0.90969556482E+01 -0.16766496763E+03  0.16793405005E+03  0.00000000000E+00 0.  1.
         -3    1    1    2    0  502 -0.17402229781E+02 -0.45869284771E+02 -0.20859314693E+03  0.21428469342E+03  0.00000000000E+00 0. -1.
<mgrwt>
<rscale>  1 0.30000000E+03</rscale>
<asrwt>0</asrwt>
<pdfrwt beam="1">  1       21 0.13132316E-01 0.30000000E+03</pdfrwt>
<pdfrwt beam="2">0</pdfrwt>
<totfact> 0.52583418E+03</totfact>
</mgrwt>
</event>
<event>
 6    1  0.1273846E-001  0.3000000E+03  0.7818608E-02  0.1093470E+00
         21   -1    0    0  501  502  0.00000000000E+00  0.00000000000E+00  0.11625546814E+01  0.11625546814E+01  0.00000000000E+00 0. -1.
         13   -1    0    0    0    0 -0.00000000000E+00 -0.00000000000E+00 -0.10000000000E+04  0.10000000000E+04  0.00000000000E+00 0.  1.
    9000005    2    1    2  501    0  0.26950259378E+02 -0.20694653163E+02 -0.52230037616E+03  0.52341558877E+03  0.34074163638E+01 0.  0.
         13    1    3    3    0    0  0.51746352063E+01 -0.55417594047E+01 -0.10608286254E+03  0.10635347512E+03  0.00000000000E+00 0.  1.
          3    1    3    3  501    0  0.21775624172E+02 -0.15152893758E+02 -0.41621751362E+03  0.41706211365E+03  0.00000000000E+00 0.  1.
         -1    1    1    2    0  502 -0.26950259378E+02  0.20694653163E+02 -0.47653706916E+03  0.47774696591E+03  0.00000000000E+00 0. -1.
<mgrwt>
<rscale>  1 0.30000000E+03</rscale>
<asrwt>0</asrwt>
<pdfrwt beam="1">  1       21 0.42274805E-02 0.30000000E+03</pdfrwt>
<pdfrwt beam="2">0</pdfrwt>
<totfact> 0.38302229E+04</totfact>
</mgrwt>
</event>
<event>
 6    1  0.1273846E-001  0.3000000E+03  0.7818608E-02  0.1093470E+00
         21   -1    0    0  501  502  0.00000000000E+00  0.00000000000E+00  0.98620213245E+00  0.98620213245E+00  0.00000000000E+00 0. -1.
         13   -1    0    0    0    0 -0.00000000000E+00 -0.00000000000E+00 -0.10000000000E+04  0.10000000000E+04  0.00000000000E+00 0.  1.
    9000005    2    1    2  501    0 -0.26375300826E+02  0.16037638116E+02 -0.40779877400E+03  0.40896587582E+03  0.62062283231E+00 0.  0.
         13    1    3    3    0    0 -0.16726084910E+01  0.85885432969E+00 -0.25657674781E+02  0.25726475179E+02  0.00000000000E+00 0.  1.
          1    1    3    3  501    0 -0.24702692335E+02  0.15178783786E+02 -0.38214109922E+03  0.38323940064E+03  0.00000000000E+00 0.  1.
         -3    1    1    2    0  502  0.26375300826E+02 -0.16037638116E+02 -0.59121502386E+03  0.59202032632E+03  0.00000000000E+00 0. -1.
<mgrwt>
<rscale>  1 0.30000000E+03</rscale>
<asrwt>0</asrwt>
<pdfrwt beam="1">  1       21 0.35861971E-02 0.30000000E+03</pdfrwt>
<pdfrwt beam="2">0</pdfrwt>
<totfact> 0.50514663E+04</totfact>
</mgrwt>
</event>
<event>
 6    1  0.1273846E-001  0.3000000E+03  0.7818608E-02  0.1093470E+00
         21   -1    0    0  501  502  0.00000000000E+00  0.00000000000E+00  0.12197253799E+01  0.12197253799E+01  0.00000000000E+00 0. -1.
         13   -1    0    0    0    0 -0.00000000000E+00 -0.00000000000E+00 -0.10000000000E+04  0.10000000000E+04  0.00000000000E+00 0.  1.
    9000005    2    1    2  501    0 -0.19494351222E+02 -0.25670826076E+02 -0.69065550274E+03  0.69141350193E+03  0.29302128901E+01 0.  0.
         13    1    3    3    0    0 -0.12097601542E+02 -0.17951712335E+02 -0.44853274734E+03  0.44905483115E+03  0.00000000000E+00 0.  1.
          1    1    3    3  501    0 -0.73967496805E+01 -0.77191137407E+01 -0.24212275539E+03  0.24235867078E+03  0.00000000000E+00 0.  1.
         -1    1    1    2    0  502  0.19494351222E+02  0.25670826076E+02 -0.30812477188E+03  0.30980622345E+03  0.00000000000E+00 0. -1.
<mgrwt>
<rscale>  1 0.30000000E+03</rscale>
<asrwt>0</asrwt>
<pdfrwt beam="1">  1       21 0.44353744E-02 0.30000000E+03</pdfrwt>
<pdfrwt beam="2">0</pdfrwt>
<totfact> 0.35313983E+04</totfact>
</mgrwt>
</event>
<event>
 6    1  0.1273846E-001  0.3000000E+03  0.7818608E-02  0.1093470E+00
         21   -1    0    0  501  502  0.00000000000E+00  0.00000000000E+00  0.15105261556E+01  0.15105261556E+01  0.00000000000E+00 0. -1.
         13   -1    0    0    0    0 -0.00000000000E+00 -0.00000000000E+00 -0.10000000000E+04  0.10000000000E+04  0.00000000000E+00 0.  1.
    9000005    2    1    2  501    0  0.36062239631E+02 -0.46123679440E+01 -0.66338215558E+03  0.66443683418E+03  0.88692284117E+01 0.  0.
         13    1    3    3    0    0  0.32551758254E+02 -0.59100205812E+01 -0.62426182233E+03  0.62513787929E+03  0.00000000000E+00 0.  1.
          3    1    3    3  501    0  0.35104813771E+01  0.12976526373E+01 -0.39120333254E+02  0.39298954894E+02  0.00000000000E+00 0.  1.
         -3    1    1    2    0  502 -0.36062239631E+02  0.46123679440E+01 -0.33510731826E+03  0.33707369197E+03  0.00000000000E+00 0. -1.
<mgrwt>
<rscale>  1 0.30000000E+03</rscale>
<asrwt>0</asrwt>
<pdfrwt beam="1">  1       21 0.54928340E-02 0.30000000E+03</pdfrwt>
<pdfrwt beam="2">0</pdfrwt>
<totfact> 0.24528921E+04</totfact>
</mgrwt>
</event>
<event>
 6    1  0.1273846E-001  0.3000000E+03  0.7818608E-02  0.1093470E+00
         21   -1    0    0  501  502  0.00000000000E+00  0.00000000000E+00  0.31492979655E+01  0.31492979655E+01  0.00000000000E+00 0. -1.
         13   -1    0    0    0    0 -0.00000000000E+00 -0.00000000000E+00 -0.10000000000E+04  0.10000000000E+04  0.00000000000E+00 0.  1.
    9000005    2    1    2  501    0  0.40684214235E+02 -0.37677235718E+02 -0.57091770679E+03  0.57362200452E+03  0.45162772585E+01 0.  0.
         13    1    3    3    0    0  0.40363117354E+02 -0.36780145450E+02 -0.55647843851E+03  0.55915133271E+03  0.00000000000E+00 0.  1.
          1    1    3    3  501    0  0.32109688104E+00 -0.89709026864E+00 -0.14439268286E+02  0.14470671815E+02  0.00000000000E+00 0.  1.
         -3    1    1    2    0  502 -0.40684214235E+02  0.37677235718E+02 -0.42593299524E+03  0.42952729344E+03  0.00000000000E+00 0. -1.
<mgrwt>
<rscale>  1 0.30000000E+03</rscale>
<asrwt>0</asrwt>
<pdfrwt beam="1">  1       21 0.11452017E-01 0.30000000E+03</pdfrwt>
<pdfrwt beam="2">0</pdfrwt>
<totfact> 0.67442950E+03</totfact>
</mgrwt>
</event>
<event>
 6    1  0.1273846E-001  0.3000000E+03  0.7818608E-02  0.1093470E+00
         21   -1    0    0  501  502  0.00000000000E+00  0.00000000000E+00  0.15024921881E+01  0.15024921881E+01  0.00000000000E+00 0. -1.
         13   -1    0    0    0    0 -0.00000000000E+00 -0.00000000000E+00 -0.10000000000E+04  0.10000000000E+04  0.00000000000E+00 0.  1.
    9000005    2    1    2  501    0  0.29008566662E+02 -0.14476401507E+02 -0.77291486982E+03  0.77360209792E+03  0.34273590603E+01 0.  0.
         13    1    3    3    0    0  0.52705964647E+01 -0.30302745534E+01 -0.11667939529E+03  0.11683767815E+03  0.00000000000E+00 0.  1.
          3    1    3    3  501    0  0.23737970197E+02 -0.11446126953E+02 -0.65623547453E+03  0.65676441977E+03  0.00000000000E+00 0.  1.
         -3    1    1    2    0  502 -0.29008566662E+02  0.14476401507E+02 -0.22558263800E+03  0.22790039426E+03  0.00000000000E+00 0. -1.
<mgrwt>
<rscale>  1 0.30000000E+03</rscale>
<asrwt>0</asrwt>
<pdfrwt beam="1">  1       21 0.54636195E-02 0.30000000E+03</pdfrwt>
<pdfrwt beam="2">0</pdfrwt>
<totfact> 0.24754178E+04</totfact>
</mgrwt>
</event>
<event>
 6    1  0.1273846E-001  0.3000000E+03  0.7818608E-02  0.1093470E+00
         21   -1    0    0  501  502  0.00000000000E+00  0.00000000000E+00  0.12830732883E+02  0.12830732883E+02  0.00000000000E+00 0. -1.
         13   -1    0    0    0    0 -0.00000000000E+00 -0.00000000000E+00 -0.10000000000E+04  0.10000000000E+04  0.00000000000E+00 0.  1.
    9000005    2    1    2  501    0 -0.86380541437E+02 -0.21283516579E+01 -0.82056508710E+03  0.82515260252E+03  0.91448044370E+01 0.  0.
         13    1    3    3    0    0 -0.47056697424E+02 -0.55249203496E+01 -0.45994527319E+03  0.46237918622E+03  0.00000000000E+00 0.  1.
          3    1    3    3  501    0 -0.39323844014E+02  0.33965686917E+01 -0.36061981392E+03  0.36277341630E+03  0.00000000000E+00 0.  1.
         -3    1    1    2    0  502  0.86380541437E+02  0.21283516579E+01 -0.16660418001E+03  0.18767813037E+03  0.00000000000E+00 0. -1.
<mgrwt>
<rscale>  1 0.30000000E+03</rscale>
<asrwt>0</asrwt>
<pdfrwt beam="1">  1       21 0.46657309E-01 0.30000000E+03</pdfrwt>
<pdfrwt beam="2">0</pdfrwt>
<totfact> 0.43609771E+02</totfact>
</mgrwt>
</event>
<event>
 6    1  0.1273846E-001  0.3000000E+03  0.7818608E-02  0.1093470E+00
         21   -1    0    0  501  502  0.00000000000E+00  0.00000000000E+00  0.99874826775E+00  0.99874826775E+00  0.00000000000E+00 0. -1.
         13   -1    0    0    0    0 -0.00000000000E+00 -0.00000000000E+00 -0.10000000000E+04  0.10000000000E+04  0.00000000000E+00 0.  1.
    9000005    2    1    2  501    0 -0.12531534384E+02  0.28081079362E+02 -0.39280882392E+03  0.39402688244E+03  0.35812793938E+01 0.  0.
         13    1    3    3    0    0 -0.27883193628E+01  0.47852141542E+01 -0.56189700671E+02  0.56461982438E+02  0.00000000000E+00 0.  1.
          3    1    3    3  501    0 -0.97432150210E+01  0.23295865208E+02 -0.33661912325E+03  0.33756490000E+03  0.00000000000E+00 0.  1.
         -1    1    1    2    0  502  0.12531534384E+02 -0.28081079362E+02 -0.60619242781E+03  0.60697186583E+03  0.00000000000E+00 0. -1.
<mgrwt>
<rscale>  1 0.30000000E+03</rscale>
<asrwt>0</asrwt>
<pdfrwt beam="1">  1       21 0.36318195E-02 0.30000000E+03</pdfrwt>
<pdfrwt beam="2">0</pdfrwt>
<totfact> 0.49454988E+04</totfact>
</mgrwt>
</event>
<event>
 6    1  0.1273846E-001  0.3000000E+03  0.7818608E-02  0.1093470E+00
         21   -1    0    0  501  502  0.00000000000E+00  0.00000000000E+00  0.15138905372E+01  0.15138905372E+01  0.00000000000E+00 0. -1.
         13   -1    0    0    0    0 -0.00000000000E+00 -0.00000000000E+00 -0.10000000000E+04  0.10000000000E+04  0.00000000000E+00 0.  1.
    9000005    2    1    2  501    0  0.18627699685E+02 -0.30125065824E+02 -0.70544866843E+03  0.70634368094E+03  0.30101541545E+01 0.  0.
         13    1    3    3    0    0  0.11710347466E+02 -0.16245674367E+02 -0.40693404913E+03  0.40742652653E+03  0.00000000000E+00 0.  1.
          3    1    3    3  501    0  0.69173522186E+01 -0.13879391457E+02 -0.29851461929E+03  0.29891715441E+03  0.00000000000E+00 0.  1.
         -3    1    1    2    0  502 -0.18627699685E+02  0.30125065824E+02 -0.29303744103E+03  0.29517020960E+03  0.00000000000E+00 0. -1.
<mgrwt>
<rscale>  1 0.30000000E+03</rscale>
<asrwt>0</asrwt>
<pdfrwt beam="1">  1       21 0.55050681E-02 0.30000000E+03</pdfrwt>
<pdfrwt beam="2">0</pdfrwt>
<totfact> 0.24435526E+04</totfact>
</mgrwt>
</event>
<event>
 6    1  0.1273846E-001  0.3000000E+03  0.7818608E-02  0.1093470E+00
         21   -1    0    0  501  502  0.00000000000E+00  0.00000000000E+00  0.12421267047E+01  0.12421267047E+01  0.00000000000E+00 0. -1.
         13   -1    0    0    0    0 -0.00000000000E+00 -0.00000000000E+00 -0.10000000000E+04  0.10000000000E+04  0.00000000000E+00 0.  1.
    9000005    2    1    2  501    0  0.30095565078E+02 -0.55500673736E+01 -0.74689924785E+03  0.74753104398E+03  0.27620630602E+01 0.  0.
         13    1    3    3    0    0  0.28492821043E+02 -0.52212260752E+01 -0.68894830407E+03  0.68955700833E+03  0.00000000000E+00 0.  1.
          1    1    3    3  501    0  0.16027440343E+01 -0.32884129846E+00 -0.57950943782E+02  0.57974035656E+02  0.00000000000E+00 0.  1.
         -3    1    1    2    0  502 -0.30095565078E+02  0.55500673736E+01 -0.25185862544E+03  0.25371108272E+03  0.00000000000E+00 0. -1.
<mgrwt>
<rscale>  1 0.30000000E+03</rscale>
<asrwt>0</asrwt>
<pdfrwt beam="1">  1       21 0.45168339E-02 0.30000000E+03</pdfrwt>
<pdfrwt beam="2">0</pdfrwt>
<totfact> 0.34240518E+04</totfact>
</mgrwt>
</event>
<event>
 6    1  0.1273846E-001  0.3000000E+03  0.7818608E-02  0.1093470E+00
         21   -1    0    0  501  502  0.00000000000E+00  0.00000000000E+00  0.20366108630E+01  0.20366108630E+01  0.00000000000E+00 0. -1.
         13   -1    0    0    0    0 -0.00000000000E+00 -0.00000000000E+00 -0.10000000000E+04  0.10000000000E+04  0.00000000000E+00 0.  1.
    9000005    2    1    2  501    0 -0.24660837249E+02  0.20600723507E+02 -0.85043521335E+03  0.85104949435E+03  0.35557023860E+01 0.  0.
         13    1    3    3    0    0 -0.18713470764E+02  0.15309801487E+02 -0.67722205404E+03  0.67765352098E+03  0.00000000000E+00 0.  1.
          3    1    3    3  501    0 -0.59473664847E+01  0.52909220204E+01 -0.17321315931E+03  0.17339597337E+03  0.00000000000E+00 0.  1.
         -3    1    1    2    0  502  0.24660837249E+02 -0.20600723507E+02 -0.14752817578E+03  0.15098711651E+03  0.00000000000E+00 0. -1.
<mgrwt>
<rscale>  1 0.30000000E+03</rscale>
<asrwt>0</asrwt>
<pdfrwt beam="1">  1       21 0.74058733E-02 0.30000000E+03</pdfrwt>
<pdfrwt beam="2">0</pdfrwt>
<totfact> 0.14624179E+04</totfact>
</mgrwt>
</event>
<event>
 6    1  0.1273846E-001  0.3000000E+03  0.7818608E-02  0.1093470E+00
         21   -1    0    0  501  502  0.00000000000E+00  0.00000000000E+00  0.20277188764E+01  0.20277188764E+01  0.00000000000E+00 0. -1.
         13   -1    0    0    0    0 -0.00000000000E+00 -0.00000000000E+00 -0.10000000000E+04  0.10000000000E+04  0.00000000000E+00 0.  1.
    9000005    2    1    2  501    0  0.18752920417E+02  0.28918829448E+02 -0.82104912946E+03  0.82177852383E+03  0.32091304590E+01 0.  0.
         13    1    3    3    0    0  0.13290913935E+02  0.17730779016E+02 -0.53341243044E+03  0.53387250338E+03  0.00000000000E+00 0.  1.
          1    1    3    3  501    0  0.54620064822E+01  0.11188050432E+02 -0.28763669902E+03  0.28790602045E+03  0.00000000000E+00 0.  1.
         -3    1    1    2    0  502 -0.18752920417E+02 -0.28918829448E+02 -0.17692315167E+03  0.18024919505E+03  0.00000000000E+00 0. -1.
<mgrwt>
<rscale>  1 0.30000000E+03</rscale>
<asrwt>0</asrwt>
<pdfrwt beam="1">  1       21 0.73735387E-02 0.30000000E+03</pdfrwt>
<pdfrwt beam="2">0</pdfrwt>
<totfact> 0.14736517E+04</totfact>
</mgrwt>
</event>
<event>
 6    1  0.1273846E-001  0.3000000E+03  0.7818608E-02  0.1093470E+00
         21   -1    0    0  501  502  0.00000000000E+00  0.00000000000E+00  0.32885061513E+01  0.32885061513E+01  0.00000000000E+00 0. -1.
         13   -1    0    0    0    0 -0.00000000000E+00 -0.00000000000E+00 -0.10000000000E+04  0.10000000000E+04  0.00000000000E+00 0.  1.
    9000005    2    1    2  501    0  0.40330944178E+02  0.18172172678E+02 -0.81737888817E+03  0.81858063849E+03  0.30334731021E+01 0.  0.
         13    1    3    3    0    0  0.12468355160E+02  0.43389158234E+01 -0.22989298866E+03  0.23027173579E+03  0.00000000000E+00 0.  1.
          3    1    3    3  501    0  0.27862589018E+02  0.13833256855E+02 -0.58748589951E+03  0.58830890269E+03  0.00000000000E+00 0.  1.
         -1    1    1    2    0  502 -0.40330944178E+02 -0.18172172678E+02 -0.17933260568E+03  0.18470786766E+03  0.00000000000E+00 0. -1.
<mgrwt>
<rscale>  1 0.30000000E+03</rscale>
<asrwt>0</asrwt>
<pdfrwt beam="1">  1       21 0.11958229E-01 0.30000000E+03</pdfrwt>
<pdfrwt beam="2">0</pdfrwt>
<totfact> 0.62364551E+03</totfact>
</mgrwt>
</event>
<event>
 6    1  0.1273846E-001  0.3000000E+03  0.7818608E-02  0.1093470E+00
         21   -1    0    0  501  502  0.00000000000E+00  0.00000000000E+00  0.26074310532E+01  0.26074310532E+01  0.00000000000E+00 0. -1.
         13   -1    0    0    0    0 -0.00000000000E+00 -0.00000000000E+00 -0.10000000000E+04  0.10000000000E+04  0.00000000000E+00 0.  1.
    9000005    2    1    2  501    0 -0.30674880663E+02  0.46037089723E+01 -0.89666890578E+03  0.89721578641E+03  0.43472221600E+01 0.  0.
         13    1    3    3    0    0 -0.20117804214E+02  0.11143258659E+01 -0.60260729475E+03  0.60294404339E+03  0.00000000000E+00 0.  1.
          1    1    3    3  501    0 -0.10557076449E+02  0.34893831064E+01 -0.29406161103E+03  0.29427174302E+03  0.00000000000E+00 0.  1.
         -3    1    1    2    0  502  0.30674880663E+02 -0.46037089723E+01 -0.10072366317E+03  0.10539164465E+03  0.00000000000E+00 0. -1.
<mgrwt>
<rscale>  1 0.30000000E+03</rscale>
<asrwt>0</asrwt>
<pdfrwt beam="1">  1       21 0.94815875E-02 0.30000000E+03</pdfrwt>
<pdfrwt beam="2">0</pdfrwt>
<totfact> 0.94603582E+03</totfact>
</mgrwt>
</event>
<event>
 6    1  0.1273846E-001  0.3000000E+03  0.7818608E-02  0.1093470E+00
         21   -1    0    0  501  502  0.00000000000E+00  0.00000000000E+00  0.27783469509E+01  0.27783469509E+01  0.00000000000E+00 0. -1.
         13   -1    0    0    0    0 -0.00000000000E+00 -0.00000000000E+00 -0.10000000000E+04  0.10000000000E+04  0.00000000000E+00 0.  1.
    9000005    2    1    2  501    0  0.19608649915E+02 -0.35232988466E+02 -0.82125830367E+03  0.82225421296E+03  0.33055648970E+01 0.  0.
         13    1    3    3    0    0  0.18677743296E+02 -0.32425338906E+02 -0.74625122257E+03  0.74718883014E+03  0.00000000000E+00 0.  1.
          1    1    3    3  501    0  0.93090661863E+00 -0.28076495600E+01 -0.75007081095E+02  0.75065382818E+02  0.00000000000E+00 0.  1.
         -1    1    1    2    0  502 -0.19608649915E+02  0.35232988466E+02 -0.17596334938E+03  0.18052413399E+03  0.00000000000E+00 0. -1.
<mgrwt>
<rscale>  1 0.30000000E+03</rscale>
<asrwt>0</asrwt>
<pdfrwt beam="1">  1       21 0.10103101E-01 0.30000000E+03</pdfrwt>
<pdfrwt beam="2">0</pdfrwt>
<totfact> 0.84469052E+03</totfact>
</mgrwt>
</event>
<event>
 6    1  0.1273846E-001  0.3000000E+03  0.7818608E-02  0.1093470E+00
         21   -1    0    0  501  502  0.00000000000E+00  0.00000000000E+00  0.35331819541E+01  0.35331819541E+01  0.00000000000E+00 0. -1.
         13   -1    0    0    0    0 -0.00000000000E+00 -0.00000000000E+00 -0.10000000000E+04  0.10000000000E+04  0.00000000000E+00 0.  1.
    9000005    2    1    2  501    0 -0.26591472083E+02  0.20288677347E+02 -0.91294121978E+03  0.91355950591E+03  0.32501139070E+01 0.  0.
         13    1    3    3    0    0 -0.46384299678E+01  0.50513040673E+01 -0.17283372426E+03  0.17296972841E+03  0.00000000000E+00 0.  1.
          1    1    3    3  501    0 -0.21953042116E+02  0.15237373280E+02 -0.74010749552E+03  0.74058977749E+03  0.00000000000E+00 0.  1.
         -3    1    1    2    0  502  0.26591472083E+02 -0.20288677347E+02 -0.83525598265E+02  0.89973676048E+02  0.00000000000E+00 0. -1.
<mgrwt>
<rscale>  1 0.30000000E+03</rscale>
<asrwt>0</asrwt>
<pdfrwt beam="1">  1       21 0.12847961E-01 0.30000000E+03</pdfrwt>
<pdfrwt beam="2">0</pdfrwt>
<totfact> 0.54727952E+03</totfact>
</mgrwt>
</event>
<event>
 6    1  0.1273846E-001  0.3000000E+03  0.7818608E-02  0.1093470E+00
         21   -1    0    0  501  502  0.00000000000E+00  0.00000000000E+00  0.13506874925E+01  0.13506874925E+01  0.00000000000E+00 0. -1.
         13   -1    0    0    0    0 -0.00000000000E+00 -0.00000000000E+00 -0.10000000000E+04  0.10000000000E+04  0.00000000000E+00 0.  1.
    9000005    2    1    2  501    0  0.13365050518E+02 -0.30436773260E+02 -0.71179084654E+03  0.71257256983E+03  0.29045341064E+01 0.  0.
         13    1    3    3    0    0  0.59274223733E-01 -0.88336553206E+00 -0.12693835995E+02  0.12724673684E+02  0.00000000000E+00 0.  1.
          3    1    3    3  501    0  0.13305776294E+02 -0.29553407728E+02 -0.69909701054E+03  0.69984789614E+03  0.00000000000E+00 0.  1.
         -3    1    1    2    0  502 -0.13365050518E+02  0.30436773260E+02 -0.28685846597E+03  0.28877811766E+03  0.00000000000E+00 0. -1.
<mgrwt>
<rscale>  1 0.30000000E+03</rscale>
<asrwt>0</asrwt>
<pdfrwt beam="1">  1       21 0.49116012E-02 0.30000000E+03</pdfrwt>
<pdfrwt beam="2">0</pdfrwt>
<totfact> 0.29693635E+04</totfact>
</mgrwt>
</event>
<event>
 6    1  0.1273846E-001  0.3000000E+03  0.7818608E-02  0.1093470E+00
         21   -1    0    0  501  502  0.00000000000E+00  0.00000000000E+00  0.15258166131E+01  0.15258166131E+01  0.00000000000E+00 0. -1.
         13   -1    0    0    0    0 -0.00000000000E+00 -0.00000000000E+00 -0.10000000000E+04  0.10000000000E+04  0.00000000000E+00 0.  1.
    9000005    2    1    2  501    0 -0.30906064662E+02 -0.23034189273E+02 -0.57423930485E+03  0.57554343332E+03  0.37021203908E+01 0.  0.
         13    1    3    3    0    0 -0.26836783151E+02 -0.21375112209E+02 -0.51460126928E+03  0.51574371028E+03  0.00000000000E+00 0.  1.
          1    1    3    3  501    0 -0.40692815108E+01 -0.16590770643E+01 -0.59638035571E+02  0.59799723038E+02  0.00000000000E+00 0.  1.
         -3    1    1    2    0  502  0.30906064662E+02  0.23034189273E+02 -0.42423487854E+03  0.42598238330E+03  0.00000000000E+00 0. -1.
<mgrwt>
<rscale>  1 0.30000000E+03</rscale>
<asrwt>0</asrwt>
<pdfrwt beam="1">  1       21 0.55484357E-02 0.30000000E+03</pdfrwt>
<pdfrwt beam="2">0</pdfrwt>
<totfact> 0.24108834E+04</totfact>
</mgrwt>
</event>
<event>
 6    1  0.1273846E-001  0.3000000E+03  0.7818608E-02  0.1093470E+00
         21   -1    0    0  501  502  0.00000000000E+00  0.00000000000E+00  0.52163193159E+01  0.52163193159E+01  0.00000000000E+00 0. -1.
         13   -1    0    0    0    0 -0.00000000000E+00 -0.00000000000E+00 -0.10000000000E+04  0.10000000000E+04  0.00000000000E+00 0.  1.
    9000005    2    1    2  501    0  0.52697895255E+02  0.47519874526E+02 -0.58983068441E+03  0.59409330144E+03  0.33775583557E+01 0.  0.
         13    1    3    3    0    0  0.14984472080E+02  0.11523090939E+02 -0.15519301866E+03  0.15633997911E+03  0.00000000000E+00 0.  1.
          1    1    3    3  501    0  0.37713423175E+02  0.35996783587E+02 -0.43463766575E+03  0.43775332232E+03  0.00000000000E+00 0.  1.
         -1    1    1    2    0  502 -0.52697895255E+02 -0.47519874526E+02 -0.40495299628E+03  0.41112301788E+03  0.00000000000E+00 0. -1.
<mgrwt>
<rscale>  1 0.30000000E+03</rscale>
<asrwt>0</asrwt>
<pdfrwt beam="1">  1       21 0.18968474E-01 0.30000000E+03</pdfrwt>
<pdfrwt beam="2">0</pdfrwt>
<totfact> 0.26534267E+03</totfact>
</mgrwt>
</event>
<event>
 6    1  0.1273846E-001  0.3000000E+03  0.7818608E-02  0.1093470E+00
         21   -1    0    0  501  502  0.00000000000E+00  0.00000000000E+00  0.78887753282E+01  0.78887753282E+01  0.00000000000E+00 0. -1.
         13   -1    0    0    0    0 -0.00000000000E+00 -0.00000000000E+00 -0.10000000000E+04  0.10000000000E+04  0.00000000000E+00 0.  1.
    9000005    2    1    2  501    0 -0.27243819727E+02  0.78480947451E+02 -0.67414143428E+03  0.67924569777E+03  0.25611907584E+01 0.  0.
         13    1    3    3    0    0 -0.10358813837E+02  0.33602562259E+02 -0.28751233926E+03  0.28965459161E+03  0.00000000000E+00 0.  1.
          1    1    3    3  501    0 -0.16885005890E+02  0.44878385191E+02 -0.38662909502E+03  0.38959110616E+03  0.00000000000E+00 0.  1.
         -3    1    1    2    0  502  0.27243819727E+02 -0.78480947451E+02 -0.31796979039E+03  0.32864307756E+03  0.00000000000E+00 0. -1.
<mgrwt>
<rscale>  1 0.30000000E+03</rscale>
<asrwt>0</asrwt>
<pdfrwt beam="1">  1       21 0.28686516E-01 0.30000000E+03</pdfrwt>
<pdfrwt beam="2">0</pdfrwt>
<totfact> 0.11888240E+03</totfact>
</mgrwt>
</event>
<event>
 6    1  0.1273846E-001  0.3000000E+03  0.7818608E-02  0.1093470E+00
         21   -1    0    0  501  502  0.00000000000E+00  0.00000000000E+00  0.41572897966E+01  0.41572897966E+01  0.00000000000E+00 0. -1.
         13   -1    0    0    0    0 -0.00000000000E+00 -0.00000000000E+00 -0.10000000000E+04  0.10000000000E+04  0.00000000000E+00 0.  1.
    9000005    2    1    2  501    0 -0.42505808653E+02 -0.46988712315E+02 -0.40817765404E+03  0.41308631175E+03  0.40768667754E+01 0.  0.
         13    1    3    3    0    0 -0.40864473817E+02 -0.45743052116E+02 -0.39031617531E+03  0.39510637649E+03  0.00000000000E+00 0.  1.
          3    1    3    3  501    0 -0.16413348359E+01 -0.12456601994E+01 -0.17861478737E+02  0.17979935263E+02  0.00000000000E+00 0.  1.
         -3    1    1    2    0  502  0.42505808653E+02  0.46988712315E+02 -0.58766505616E+03  0.59107097804E+03  0.00000000000E+00 0. -1.
<mgrwt>
<rscale>  1 0.30000000E+03</rscale>
<asrwt>0</asrwt>
<pdfrwt beam="1">  1       21 0.15117449E-01 0.30000000E+03</pdfrwt>
<pdfrwt beam="2">0</pdfrwt>
<totfact> 0.40589877E+03</totfact>
</mgrwt>
</event>
<event>
 6    1  0.1273846E-001  0.3000000E+03  0.7818608E-02  0.1093470E+00
         21   -1    0    0  501  502  0.00000000000E+00  0.00000000000E+00  0.97924774312E+00  0.97924774312E+00  0.00000000000E+00 0. -1.
         13   -1    0    0    0    0 -0.00000000000E+00 -0.00000000000E+00 -0.10000000000E+04  0.10000000000E+04  0.00000000000E+00 0.  1.
    9000005    2    1    2  501    0  0.24020817080E+02 -0.19636259642E+02 -0.44958343796E+03  0.45066665958E+03  0.35479607775E+01 0.  0.
         13    1    3    3    0    0  0.16083397541E+02 -0.11556939636E+02 -0.30269367841E+03  0.30334089978E+03  0.00000000000E+00 0.  1.
          3    1    3    3  501    0  0.79374195398E+01 -0.80793200061E+01 -0.14688975955E+03  0.14732575980E+03  0.00000000000E+00 0.  1.
         -1    1    1    2    0  502 -0.24020817080E+02  0.19636259642E+02 -0.54943731430E+03  0.55031258816E+03  0.00000000000E+00 0. -1.
<mgrwt>
<rscale>  1 0.30000000E+03</rscale>
<asrwt>0</asrwt>
<pdfrwt beam="1">  1       21 0.35609084E-02 0.30000000E+03</pdfrwt>
<pdfrwt beam="2">0</pdfrwt>
<totfact> 0.51117570E+04</totfact>
</mgrwt>
</event>
<event>
 6    1  0.1273846E-001  0.3000000E+03  0.7818608E-02  0.1093470E+00
         21   -1    0    0  501  502  0.00000000000E+00  0.00000000000E+00  0.49263629777E+01  0.49263629777E+01  0.00000000000E+00 0. -1.
         13   -1    0    0    0    0 -0.00000000000E+00 -0.00000000000E+00 -0.10000000000E+04  0.10000000000E+04  0.00000000000E+00 0.  1.
    9000005    2    1    2  501    0  0.45658308476E+02  0.18387690721E+02 -0.85563321521E+03  0.85705337850E+03  0.30832330074E+01 0.  0.
         13    1    3    3    0    0  0.56600782942E+01  0.13283676173E+01 -0.93260675762E+02  0.93441718148E+02  0.00000000000E+00 0.  1.
          3    1    3    3  501    0  0.39998230182E+02  0.17059323104E+02 -0.76237253945E+03  0.76361166035E+03  0.00000000000E+00 0.  1.
         -3    1    1    2    0  502 -0.45658308476E+02 -0.18387690721E+02 -0.13944042181E+03  0.14787298448E+03  0.00000000000E+00 0. -1.
<mgrwt>
<rscale>  1 0.30000000E+03</rscale>
<asrwt>0</asrwt>
<pdfrwt beam="1">  1       21 0.17914085E-01 0.30000000E+03</pdfrwt>
<pdfrwt beam="2">0</pdfrwt>
<totfact> 0.29560634E+03</totfact>
</mgrwt>
</event>
<event>
 6    1  0.1273846E-001  0.3000000E+03  0.7818608E-02  0.1093470E+00
         21   -1    0    0  501  502  0.00000000000E+00  0.00000000000E+00  0.10354429222E+01  0.10354429222E+01  0.00000000000E+00 0. -1.
         13   -1    0    0    0    0 -0.00000000000E+00 -0.00000000000E+00 -0.10000000000E+04  0.10000000000E+04  0.00000000000E+00 0.  1.
    9000005    2    1    2  501    0 -0.29821383596E+02 -0.39214422969E+01 -0.67531351123E+03  0.67598976596E+03  0.30220212384E+01 0.  0.
         13    1    3    3    0    0 -0.75378025789E+01 -0.14181531774E+01 -0.14567547567E+03  0.14587725607E+03  0.00000000000E+00 0.  1.
          3    1    3    3  501    0 -0.22283581017E+02 -0.25032891195E+01 -0.52963803556E+03  0.53011250990E+03  0.00000000000E+00 0.  1.
         -1    1    1    2    0  502  0.29821383596E+02  0.39214422969E+01 -0.32365104585E+03  0.32504567696E+03  0.00000000000E+00 0. -1.
<mgrwt>
<rscale>  1 0.30000000E+03</rscale>
<asrwt>0</asrwt>
<pdfrwt beam="1">  1       21 0.37652549E-02 0.30000000E+03</pdfrwt>
<pdfrwt beam="2">0</pdfrwt>
<totfact> 0.46548822E+04</totfact>
</mgrwt>
</event>
<event>
 6    1  0.1273846E-001  0.3000000E+03  0.7818608E-02  0.1093470E+00
         21   -1    0    0  501  502  0.00000000000E+00  0.00000000000E+00  0.16487817286E+01  0.16487817286E+01  0.00000000000E+00 0. -1.
         13   -1    0    0    0    0 -0.00000000000E+00 -0.00000000000E+00 -0.10000000000E+04  0.10000000000E+04  0.00000000000E+00 0.  1.
    9000005    2    1    2  501    0  0.26657987799E+02 -0.22244656518E+02 -0.75818091229E+03  0.75898183109E+03  0.31066230160E+01 0.  0.
         13    1    3    3    0    0  0.14278831189E+02 -0.11763827890E+02 -0.43744656120E+03  0.43783760297E+03  0.00000000000E+00 0.  1.
          3    1    3    3  501    0  0.12379156610E+02 -0.10480828628E+02 -0.32073435109E+03  0.32114422812E+03  0.00000000000E+00 0.  1.
         -3    1    1    2    0  502 -0.26657987799E+02  0.22244656518E+02 -0.24017030598E+03  0.24266695064E+03  0.00000000000E+00 0. -1.
<mgrwt>
<rscale>  1 0.30000000E+03</rscale>
<asrwt>0</asrwt>
<pdfrwt beam="1">  1       21 0.59955826E-02 0.30000000E+03</pdfrwt>
<pdfrwt beam="2">0</pdfrwt>
<totfact> 0.21098447E+04</totfact>
</mgrwt>
</event>
<event>
 6    1  0.1273846E-001  0.3000000E+03  0.7818608E-02  0.1093470E+00
         21   -1    0    0  501  502  0.00000000000E+00  0.00000000000E+00  0.11436341832E+01  0.11436341832E+01  0.00000000000E+00 0. -1.
         13   -1    0    0    0    0 -0.00000000000E+00 -0.00000000000E+00 -0.10000000000E+04  0.10000000000E+04  0.00000000000E+00 0.  1.
    9000005    2    1    2  501    0 -0.33706842071E+02  0.11277061170E+01 -0.51031726089E+03  0.51144180658E+03  0.34046766970E+01 0.  0.
         13    1    3    3    0    0 -0.19289542770E+01  0.55795037902E+00 -0.41393224753E+02  0.41441901847E+02  0.00000000000E+00 0.  1.
          3    1    3    3  501    0 -0.31777887794E+02  0.56975573796E+00 -0.46892403614E+03  0.46999990473E+03  0.00000000000E+00 0.  1.
         -1    1    1    2    0  502  0.33706842071E+02 -0.11277061170E+01 -0.48853910492E+03  0.48970182761E+03  0.00000000000E+00 0. -1.
<mgrwt>
<rscale>  1 0.30000000E+03</rscale>
<asrwt>0</asrwt>
<pdfrwt beam="1">  1       21 0.41586785E-02 0.30000000E+03</pdfrwt>
<pdfrwt beam="2">0</pdfrwt>
<totfact> 0.39378258E+04</totfact>
</mgrwt>
</event>
<event>
 6    1  0.1273846E-001  0.3000000E+03  0.7818608E-02  0.1093470E+00
         21   -1    0    0  501  502  0.00000000000E+00  0.00000000000E+00  0.11725888728E+01  0.11725888728E+01  0.00000000000E+00 0. -1.
         13   -1    0    0    0    0 -0.00000000000E+00 -0.00000000000E+00 -0.10000000000E+04  0.10000000000E+04  0.00000000000E+00 0.  1.
    9000005    2    1    2  501    0 -0.66459653293E+00 -0.31049788769E+02 -0.29608760619E+03  0.29774685397E+03  0.45593247851E+01 0.  0.
         13    1    3    3    0    0 -0.91093595423E+00 -0.11410965676E+01 -0.11708415197E+02  0.11799105564E+02  0.00000000000E+00 0.  1.
          3    1    3    3  501    0  0.24633942130E+00 -0.29908692201E+02 -0.28437919099E+03  0.28594774841E+03  0.00000000000E+00 0.  1.
         -1    1    1    2    0  502  0.66459653293E+00  0.31049788769E+02 -0.70273980494E+03  0.70342573490E+03  0.00000000000E+00 0. -1.
<mgrwt>
<rscale>  1 0.30000000E+03</rscale>
<asrwt>0</asrwt>
<pdfrwt beam="1">  1       21 0.42639685E-02 0.30000000E+03</pdfrwt>
<pdfrwt beam="2">0</pdfrwt>
<totfact> 0.37750013E+04</totfact>
</mgrwt>
</event>
<event>
 6    1  0.1273846E-001  0.3000000E+03  0.7818608E-02  0.1093470E+00
         21   -1    0    0  501  502  0.00000000000E+00  0.00000000000E+00  0.11509471004E+01  0.11509471004E+01  0.00000000000E+00 0. -1.
         13   -1    0    0    0    0 -0.00000000000E+00 -0.00000000000E+00 -0.10000000000E+04  0.10000000000E+04  0.00000000000E+00 0.  1.
    9000005    2    1    2  501    0 -0.49942301013E+01 -0.32691214068E+02 -0.60645756599E+03  0.60736834615E+03  0.34453951567E+01 0.  0.
         13    1    3    3    0    0 -0.42622286490E+01 -0.30001250033E+02 -0.53629129287E+03  0.53714671404E+03  0.00000000000E+00 0.  1.
          1    1    3    3  501    0 -0.73200145234E+00 -0.26899640348E+01 -0.70166273117E+02  0.70221632107E+02  0.00000000000E+00 0.  1.
         -3    1    1    2    0  502  0.49942301013E+01  0.32691214068E+02 -0.39239148691E+03  0.39378260095E+03  0.00000000000E+00 0. -1.
<mgrwt>
<rscale>  1 0.30000000E+03</rscale>
<asrwt>0</asrwt>
<pdfrwt beam="1">  1       21 0.41852710E-02 0.30000000E+03</pdfrwt>
<pdfrwt beam="2">0</pdfrwt>
<totfact> 0.38956853E+04</totfact>
</mgrwt>
</event>
<event>
 6    1  0.1273846E-001  0.3000000E+03  0.7818608E-02  0.1093470E+00
         21   -1    0    0  501  502  0.00000000000E+00  0.00000000000E+00  0.40852201886E+01  0.40852201886E+01  0.00000000000E+00 0. -1.
         13   -1    0    0    0    0 -0.00000000000E+00 -0.00000000000E+00 -0.10000000000E+04  0.10000000000E+04  0.00000000000E+00 0.  1.
    9000005    2    1    2  501    0  0.40747678707E+02  0.47468551216E+02 -0.59957639907E+03  0.60283997259E+03  0.32461595320E+01 0.  0.
         13    1    3    3    0    0  0.15376149232E+02  0.15576869787E+02 -0.20677221758E+03  0.20792742677E+03  0.00000000000E+00 0.  1.
          3    1    3    3  501    0  0.25371529475E+02  0.31891681429E+02 -0.39280418149E+03  0.39491254582E+03  0.00000000000E+00 0.  1.
         -3    1    1    2    0  502 -0.40747678707E+02 -0.47468551216E+02 -0.39633838074E+03  0.40124524760E+03  0.00000000000E+00 0. -1.
<mgrwt>
<rscale>  1 0.30000000E+03</rscale>
<asrwt>0</asrwt>
<pdfrwt beam="1">  1       21 0.14855377E-01 0.30000000E+03</pdfrwt>
<pdfrwt beam="2">0</pdfrwt>
<totfact> 0.41925033E+03</totfact>
</mgrwt>
</event>
<event>
 6    1  0.1273846E-001  0.3000000E+03  0.7818608E-02  0.1093470E+00
         21   -1    0    0  501  502  0.00000000000E+00  0.00000000000E+00  0.28194291156E+01  0.28194291156E+01  0.00000000000E+00 0. -1.
         13   -1    0    0    0    0 -0.00000000000E+00 -0.00000000000E+00 -0.10000000000E+04  0.10000000000E+04  0.00000000000E+00 0.  1.
    9000005    2    1    2  501    0  0.33405070044E+02 -0.12816628089E+02 -0.86893763326E+03  0.86967884285E+03  0.29179698582E+01 0.  0.
         13    1    3    3    0    0  0.17298816927E+02 -0.71694186586E+01 -0.48766890526E+03  0.48802828892E+03  0.00000000000E+00 0.  1.
          1    1    3    3  501    0  0.16106253117E+02 -0.56472094306E+01 -0.38126872800E+03  0.38165055393E+03  0.00000000000E+00 0.  1.
         -3    1    1    2    0  502 -0.33405070044E+02  0.12816628089E+02 -0.12824293763E+03  0.13314058627E+03  0.00000000000E+00 0. -1.
<mgrwt>
<rscale>  1 0.30000000E+03</rscale>
<asrwt>0</asrwt>
<pdfrwt beam="1">  1       21 0.10252491E-01 0.30000000E+03</pdfrwt>
<pdfrwt beam="2">0</pdfrwt>
<totfact> 0.82280077E+03</totfact>
</mgrwt>
</event>
<event>
 6    1  0.1273846E-001  0.3000000E+03  0.7818608E-02  0.1093470E+00
         21   -1    0    0  501  502  0.00000000000E+00  0.00000000000E+00  0.18153763225E+01  0.18153763225E+01  0.00000000000E+00 0. -1.
         13   -1    0    0    0    0 -0.00000000000E+00 -0.00000000000E+00 -0.10000000000E+04  0.10000000000E+04  0.00000000000E+00 0.  1.
    9000005    2    1    2  501    0  0.32710376214E+02  0.27216777715E+02 -0.50882624189E+03  0.51061038090E+03  0.28451620035E+01 0.  0.
         13    1    3    3    0    0  0.10356137482E+02  0.77578090433E+01 -0.16849960944E+03  0.16899571463E+03  0.00000000000E+00 0.  1.
          1    1    3    3  501    0  0.22354238732E+02  0.19458968672E+02 -0.34032663246E+03  0.34161466627E+03  0.00000000000E+00 0.  1.
         -1    1    1    2    0  502 -0.32710376214E+02 -0.27216777715E+02 -0.48935838179E+03  0.49120499542E+03  0.00000000000E+00 0. -1.
<mgrwt>
<rscale>  1 0.30000000E+03</rscale>
<asrwt>0</asrwt>
<pdfrwt beam="1">  1       21 0.66013824E-02 0.30000000E+03</pdfrwt>
<pdfrwt beam="2">0</pdfrwt>
<totfact> 0.17864633E+04</totfact>
</mgrwt>
</event>
<event>
 6    1  0.1273846E-001  0.3000000E+03  0.7818608E-02  0.1093470E+00
         21   -1    0    0  501  502  0.00000000000E+00  0.00000000000E+00  0.25751876421E+01  0.25751876421E+01  0.00000000000E+00 0. -1.
         13   -1    0    0    0    0 -0.00000000000E+00 -0.00000000000E+00 -0.10000000000E+04  0.10000000000E+04  0.00000000000E+00 0.  1.
    9000005    2    1    2  501    0  0.35185115083E+02 -0.23768688856E+02 -0.77273087060E+03  0.77390444103E+03  0.34846197286E+01 0.  0.
         13    1    3    3    0    0  0.15189564489E+02 -0.12238357799E+02 -0.36437965954E+03  0.36490140663E+03  0.00000000000E+00 0.  1.
          1    1    3    3  501    0  0.19995550594E+02 -0.11530331058E+02 -0.40835121106E+03  0.40900303440E+03  0.00000000000E+00 0.  1.
         -1    1    1    2    0  502 -0.35185115083E+02  0.23768688856E+02 -0.22469394176E+03  0.22867074661E+03  0.00000000000E+00 0. -1.
<mgrwt>
<rscale>  1 0.30000000E+03</rscale>
<asrwt>0</asrwt>
<pdfrwt beam="1">  1       21 0.93643384E-02 0.30000000E+03</pdfrwt>
<pdfrwt beam="2">0</pdfrwt>
<totfact> 0.96722027E+03</totfact>
</mgrwt>
</event>
<event>
 6    1  0.1273846E-001  0.3000000E+03  0.7818608E-02  0.1093470E+00
         21   -1    0    0  501  502  0.00000000000E+00  0.00000000000E+00  0.10706214229E+01  0.10706214229E+01  0.00000000000E+00 0. -1.
         13   -1    0    0    0    0 -0.00000000000E+00 -0.00000000000E+00 -0.10000000000E+04  0.10000000000E+04  0.00000000000E+00 0.  1.
    9000005    2    1    2  501    0 -0.11918014123E+01 -0.32062897220E+02 -0.59303827681E+03  0.59391335910E+03  0.30381880370E+01 0.  0.
         13    1    3    3    0    0 -0.69471123826E-01 -0.17795531724E+01 -0.48291748851E+02  0.48324575971E+02  0.00000000000E+00 0.  1.
          1    1    3    3  501    0 -0.11223302885E+01 -0.30283344048E+02 -0.54474652796E+03  0.54558878313E+03  0.00000000000E+00 0.  1.
         -1    1    1    2    0  502  0.11918014123E+01  0.32062897220E+02 -0.40589110177E+03  0.40715726232E+03  0.00000000000E+00 0. -1.
<mgrwt>
<rscale>  1 0.30000000E+03</rscale>
<asrwt>0</asrwt>
<pdfrwt beam="1">  1       21 0.38931770E-02 0.30000000E+03</pdfrwt>
<pdfrwt beam="2">0</pdfrwt>
<totfact> 0.44007082E+04</totfact>
</mgrwt>
</event>
<event>
 6    1  0.1273846E-001  0.3000000E+03  0.7818608E-02  0.1093470E+00
         21   -1    0    0  501  502  0.00000000000E+00  0.00000000000E+00  0.31603770763E+01  0.31603770763E+01  0.00000000000E+00 0. -1.
         13   -1    0    0    0    0 -0.00000000000E+00 -0.00000000000E+00 -0.10000000000E+04  0.10000000000E+04  0.00000000000E+00 0.  1.
    9000005    2    1    2  501    0  0.32159834523E+02 -0.36605650780E+02 -0.74802039148E+03  0.74961503880E+03  0.37378736098E+01 0.  0.
         13    1    3    3    0    0  0.26123062191E+02 -0.28190042223E+02 -0.57105889234E+03  0.57235072410E+03  0.00000000000E+00 0.  1.
          1    1    3    3  501    0  0.60367723318E+01 -0.84156085566E+01 -0.17696149914E+03  0.17726431470E+03  0.00000000000E+00 0.  1.
         -1    1    1    2    0  502 -0.32159834523E+02  0.36605650780E+02 -0.24881923145E+03  0.25354533828E+03  0.00000000000E+00 0. -1.
<mgrwt>
<rscale>  1 0.30000000E+03</rscale>
<asrwt>0</asrwt>
<pdfrwt beam="1">  1       21 0.11492305E-01 0.30000000E+03</pdfrwt>
<pdfrwt beam="2">0</pdfrwt>
<totfact> 0.67016529E+03</totfact>
</mgrwt>
</event>
<event>
 6    1  0.1273846E-001  0.3000000E+03  0.7818608E-02  0.1093470E+00
         21   -1    0    0  501  502  0.00000000000E+00  0.00000000000E+00  0.79339498762E+01  0.79339498762E+01  0.00000000000E+00 0. -1.
         13   -1    0    0    0    0 -0.00000000000E+00 -0.00000000000E+00 -0.10000000000E+04  0.10000000000E+04  0.00000000000E+00 0.  1.
    9000005    2    1    2  501    0 -0.36050016253E+02 -0.12032607390E+01 -0.95680908553E+03  0.95749482755E+03  0.34157184422E+01 0.  0.
         13    1    3    3    0    0 -0.28357994768E+01  0.79558743149E+00 -0.84769397623E+02  0.84820548756E+02  0.00000000000E+00 0.  1.
          1    1    3    3  501    0 -0.33214216776E+02 -0.19988481705E+01 -0.87203968791E+03  0.87267427880E+03  0.00000000000E+00 0.  1.
         -3    1    1    2    0  502  0.36050016253E+02  0.12032607390E+01 -0.35256964595E+02  0.50439122323E+02  0.00000000000E+00 0. -1.
<mgrwt>
<rscale>  1 0.30000000E+03</rscale>
<asrwt>0</asrwt>
<pdfrwt beam="1">  1       21 0.28850788E-01 0.30000000E+03</pdfrwt>
<pdfrwt beam="2">0</pdfrwt>
<totfact> 0.11753971E+03</totfact>
</mgrwt>
</event>
<event>
 6    1  0.1273846E-001  0.3000000E+03  0.7818608E-02  0.1093470E+00
         21   -1    0    0  501  502  0.00000000000E+00  0.00000000000E+00  0.17769111729E+01  0.17769111729E+01  0.00000000000E+00 0. -1.
         13   -1    0    0    0    0 -0.00000000000E+00 -0.00000000000E+00 -0.10000000000E+04  0.10000000000E+04  0.00000000000E+00 0.  1.
    9000005    2    1    2  501    0  0.62060397859E+00  0.40566515331E+02 -0.36594097149E+03  0.36819447516E+03  0.28895692397E+01 0.  0.
         13    1    3    3    0    0 -0.11169771999E+01  0.16094731801E+02 -0.14180240225E+03  0.14271723552E+03  0.00000000000E+00 0.  1.
          1    1    3    3  501    0  0.17375811785E+01  0.24471783530E+02 -0.22413856923E+03  0.22547723964E+03  0.00000000000E+00 0.  1.
         -3    1    1    2    0  502 -0.62060397859E+00 -0.40566515331E+02 -0.63228211734E+03  0.63358243601E+03  0.00000000000E+00 0. -1.
<mgrwt>
<rscale>  1 0.30000000E+03</rscale>
<asrwt>0</asrwt>
<pdfrwt beam="1">  1       21 0.64615088E-02 0.30000000E+03</pdfrwt>
<pdfrwt beam="2">0</pdfrwt>
<totfact> 0.18539685E+04</totfact>
</mgrwt>
</event>
<event>
 6    1  0.1273846E-001  0.3000000E+03  0.7818608E-02  0.1093470E+00
         21   -1    0    0  501  502  0.00000000000E+00  0.00000000000E+00  0.24361034421E+01  0.24361034421E+01  0.00000000000E+00 0. -1.
         13   -1    0    0    0    0 -0.00000000000E+00 -0.00000000000E+00 -0.10000000000E+04  0.10000000000E+04  0.00000000000E+00 0.  1.
    9000005    2    1    2  501    0 -0.27298673353E+02  0.39295337056E+02 -0.61988154900E+03  0.62173504390E+03  0.34625047418E+01 0.  0.
         13    1    3    3    0    0 -0.14692814918E+02  0.18313921565E+02 -0.29552593999E+03  0.29645718028E+03  0.00000000000E+00 0.  1.
          3    1    3    3  501    0 -0.12605858434E+02  0.20981415492E+02 -0.32435560901E+03  0.32527786361E+03  0.00000000000E+00 0.  1.
         -1    1    1    2    0  502  0.27298673353E+02 -0.39295337056E+02 -0.37768234756E+03  0.38070105955E+03  0.00000000000E+00 0. -1.
<mgrwt>
<rscale>  1 0.30000000E+03</rscale>
<asrwt>0</asrwt>
<pdfrwt beam="1">  1       21 0.88585767E-02 0.30000000E+03</pdfrwt>
<pdfrwt beam="2">0</pdfrwt>
<totfact> 0.10673215E+04</totfact>
</mgrwt>
</event>
<event>
 6    1  0.1273846E-001  0.3000000E+03  0.7818608E-02  0.1093470E+00
         21   -1    0    0  501  502  0.00000000000E+00  0.00000000000E+00  0.12481903543E+01  0.12481903543E+01  0.00000000000E+00 0. -1.
         13   -1    0    0    0    0 -0.00000000000E+00 -0.00000000000E+00 -0.10000000000E+04  0.10000000000E+04  0.00000000000E+00 0.  1.
    9000005    2    1    2  501    0 -0.23029413491E+02 -0.25820696488E+02 -0.59740106011E+03  0.59840890924E+03  0.28519798287E+01 0.  0.
         13    1    3    3    0    0 -0.20230003362E+02 -0.22020852007E+02 -0.49968550687E+03  0.50057944099E+03  0.00000000000E+00 0.  1.
          3    1    3    3  501    0 -0.27994101288E+01 -0.37998444807E+01 -0.97715553234E+02  0.97829468254E+02  0.00000000000E+00 0.  1.
         -3    1    1    2    0  502  0.23029413491E+02  0.25820696488E+02 -0.40135074954E+03  0.40283928111E+03  0.00000000000E+00 0. -1.
<mgrwt>
<rscale>  1 0.30000000E+03</rscale>
<asrwt>0</asrwt>
<pdfrwt beam="1">  1       21 0.45388836E-02 0.30000000E+03</pdfrwt>
<pdfrwt beam="2">0</pdfrwt>
<totfact> 0.33958594E+04</totfact>
</mgrwt>
</event>
<event>
 6    1  0.1273846E-001  0.3000000E+03  0.7818608E-02  0.1093470E+00
         21   -1    0    0  501  502  0.00000000000E+00  0.00000000000E+00  0.99150897811E+00  0.99150897811E+00  0.00000000000E+00 0. -1.
         13   -1    0    0    0    0 -0.00000000000E+00 -0.00000000000E+00 -0.10000000000E+04  0.10000000000E+04  0.00000000000E+00 0.  1.
    9000005    2    1    2  501    0 -0.23014455883E+02  0.20980684285E+02 -0.45824300599E+03  0.45933002419E+03  0.52501712446E+01 0.  0.
         13    1    3    3    0    0 -0.13191345332E+01  0.24638187847E+01 -0.61221611867E+02  0.61285367573E+02  0.00000000000E+00 0.  1.
          1    1    3    3  501    0 -0.21695321350E+02  0.18516865500E+02 -0.39702139412E+03  0.39804465662E+03  0.00000000000E+00 0.  1.
         -1    1    1    2    0  502  0.23014455883E+02 -0.20980684285E+02 -0.54076548503E+03  0.54166148478E+03  0.00000000000E+00 0. -1.
<mgrwt>
<rscale>  1 0.30000000E+03</rscale>
<asrwt>0</asrwt>
<pdfrwt beam="1">  1       21 0.36054948E-02 0.30000000E+03</pdfrwt>
<pdfrwt beam="2">0</pdfrwt>
<totfact> 0.50062104E+04</totfact>
</mgrwt>
</event>
<event>
 6    1  0.1273846E-001  0.3000000E+03  0.7818608E-02  0.1093470E+00
         21   -1    0    0  501  502  0.00000000000E+00  0.00000000000E+00  0.27486055347E+01  0.27486055347E+01  0.00000000000E+00 0. -1.
         13   -1    0    0    0    0 -0.00000000000E+00 -0.00000000000E+00 -0.10000000000E+04  0.10000000000E+04  0.00000000000E+00 0.  1.
    9000005    2    1    2  501    0  0.87817594830E+00  0.42137615972E+02 -0.79645126099E+03  0.79757296498E+03  0.34166450920E+01 0.  0.
         13    1    3    3    0    0 -0.34086857907E+00  0.36679859184E+02 -0.69719384817E+03  0.69815814125E+03  0.00000000000E+00 0.  1.
          1    1    3    3  501    0  0.12190445274E+01  0.54577567886E+01 -0.99257412816E+02  0.99414823732E+02  0.00000000000E+00 0.  1.
         -1    1    1    2    0  502 -0.87817594830E+00 -0.42137615972E+02 -0.20080013348E+03  0.20517564056E+03  0.00000000000E+00 0. -1.
<mgrwt>
<rscale>  1 0.30000000E+03</rscale>
<asrwt>0</asrwt>
<pdfrwt beam="1">  1       21 0.99949503E-02 0.30000000E+03</pdfrwt>
<pdfrwt beam="2">0</pdfrwt>
<totfact> 0.86109657E+03</totfact>
</mgrwt>
</event>
<event>
 6    1  0.1273846E-001  0.3000000E+03  0.7818608E-02  0.1093470E+00
         21   -1    0    0  501  502  0.00000000000E+00  0.00000000000E+00  0.16655036400E+01  0.16655036400E+01  0.00000000000E+00 0. -1.
         13   -1    0    0    0    0 -0.00000000000E+00 -0.00000000000E+00 -0.10000000000E+04  0.10000000000E+04  0.00000000000E+00 0.  1.
    9000005    2    1    2  501    0 -0.54046945878E+01  0.39901317326E+02 -0.57680762238E+03  0.57821983849E+03  0.31340929380E+01 0.  0.
         13    1    3    3    0    0 -0.30265704523E+01  0.13486167970E+02 -0.21060062914E+03  0.21105369424E+03  0.00000000000E+00 0.  1.
          3    1    3    3  501    0 -0.23781241355E+01  0.26415149356E+02 -0.36620699323E+03  0.36716614425E+03  0.00000000000E+00 0.  1.
         -3    1    1    2    0  502  0.54046945878E+01 -0.39901317326E+02 -0.42152687398E+03  0.42344566515E+03  0.00000000000E+00 0. -1.
<mgrwt>
<rscale>  1 0.30000000E+03</rscale>
<asrwt>0</asrwt>
<pdfrwt beam="1">  1       21 0.60563896E-02 0.30000000E+03</pdfrwt>
<pdfrwt beam="2">0</pdfrwt>
<totfact> 0.20734382E+04</totfact>
</mgrwt>
</event>
<event>
 6    1  0.1273846E-001  0.3000000E+03  0.7818608E-02  0.1093470E+00
         21   -1    0    0  501  502  0.00000000000E+00  0.00000000000E+00  0.32161526885E+01  0.32161526885E+01  0.00000000000E+00 0. -1.
         13   -1    0    0    0    0 -0.00000000000E+00 -0.00000000000E+00 -0.10000000000E+04  0.10000000000E+04  0.00000000000E+00 0.  1.
    9000005    2    1    2  501    0  0.25531696567E+02  0.19882167433E+02 -0.91023139556E+03  0.91081217542E+03  0.32337768182E+01 0.  0.
         13    1    3    3    0    0  0.14726021150E+02  0.10134862796E+02 -0.46741623389E+03  0.46775795754E+03  0.00000000000E+00 0.  1.
          1    1    3    3  501    0  0.10805675417E+02  0.97473046376E+01 -0.44281516168E+03  0.44305421788E+03  0.00000000000E+00 0.  1.
         -1    1    1    2    0  502 -0.25531696567E+02 -0.19882167433E+02 -0.86552451747E+02  0.92403977268E+02  0.00000000000E+00 0. -1.
<mgrwt>
<rscale>  1 0.30000000E+03</rscale>
<asrwt>0</asrwt>
<pdfrwt beam="1">  1       21 0.11695125E-01 0.30000000E+03</pdfrwt>
<pdfrwt beam="2">0</pdfrwt>
<totfact> 0.64929886E+03</totfact>
</mgrwt>
</event>
<event>
 6    1  0.1273846E-001  0.3000000E+03  0.7818608E-02  0.1093470E+00
         21   -1    0    0  501  502  0.00000000000E+00  0.00000000000E+00  0.11802291213E+02  0.11802291213E+02  0.00000000000E+00 0. -1.
         13   -1    0    0    0    0 -0.00000000000E+00 -0.00000000000E+00 -0.10000000000E+04  0.10000000000E+04  0.00000000000E+00 0.  1.
    9000005    2    1    2  501    0  0.93988756303E+02 -0.53465131439E+02 -0.54215338513E+03  0.55283829997E+03  0.27361129068E+01 0.  0.
         13    1    3    3    0    0  0.33261907446E+02 -0.17644929746E+02 -0.18525405713E+03  0.18904169835E+03  0.00000000000E+00 0.  1.
          1    1    3    3  501    0  0.60726848857E+02 -0.35820201693E+02 -0.35689932800E+03  0.36379660161E+03  0.00000000000E+00 0.  1.
         -1    1    1    2    0  502 -0.93988756303E+02  0.53465131439E+02 -0.44604432366E+03  0.45896399125E+03  0.00000000000E+00 0. -1.
<mgrwt>
<rscale>  1 0.30000000E+03</rscale>
<asrwt>0</asrwt>
<pdfrwt beam="1">  1       21 0.42917513E-01 0.30000000E+03</pdfrwt>
<pdfrwt beam="2">0</pdfrwt>
<totfact> 0.52091226E+02</totfact>
</mgrwt>
</event>
<event>
 6    1  0.1273846E-001  0.3000000E+03  0.7818608E-02  0.1093470E+00
         21   -1    0    0  501  502  0.00000000000E+00  0.00000000000E+00  0.31196978209E+01  0.31196978209E+01  0.00000000000E+00 0. -1.
         13   -1    0    0    0    0 -0.00000000000E+00 -0.00000000000E+00 -0.10000000000E+04  0.10000000000E+04  0.00000000000E+00 0.  1.
    9000005    2    1    2  501    0  0.43325600175E+02  0.26933486466E+02 -0.70155166102E+03  0.70341730108E+03  0.43181076754E+01 0.  0.
         13    1    3    3    0    0  0.14517562190E+01  0.11430595542E+01 -0.16631219139E+02  0.16733548080E+02  0.00000000000E+00 0.  1.
          1    1    3    3  501    0  0.41873843956E+02  0.25790426912E+02 -0.68492044188E+03  0.68668375300E+03  0.00000000000E+00 0.  1.
         -1    1    1    2    0  502 -0.43325600175E+02 -0.26933486466E+02 -0.29532864116E+03  0.29970239674E+03  0.00000000000E+00 0. -1.
<mgrwt>
<rscale>  1 0.30000000E+03</rscale>
<asrwt>0</asrwt>
<pdfrwt beam="1">  1       21 0.11344380E-01 0.30000000E+03</pdfrwt>
<pdfrwt beam="2">0</pdfrwt>
<totfact> 0.68602386E+03</totfact>
</mgrwt>
</event>
<event>
 6    1  0.1273846E-001  0.3000000E+03  0.7818608E-02  0.1093470E+00
         21   -1    0    0  501  502  0.00000000000E+00  0.00000000000E+00  0.17460930338E+01  0.17460930338E+01  0.00000000000E+00 0. -1.
         13   -1    0    0    0    0 -0.00000000000E+00 -0.00000000000E+00 -0.10000000000E+04  0.10000000000E+04  0.00000000000E+00 0.  1.
    9000005    2    1    2  501    0  0.18120385520E+02  0.34483186304E+02 -0.67924600459E+03  0.68036861982E+03  0.29808688422E+01 0.  0.
         13    1    3    3    0    0  0.11435677913E+02  0.23564155570E+02 -0.47533020400E+03  0.47605130710E+03  0.00000000000E+00 0.  1.
          1    1    3    3  501    0  0.66847076069E+01  0.10919030734E+02 -0.20391580059E+03  0.20431731272E+03  0.00000000000E+00 0.  1.
         -3    1    1    2    0  502 -0.18120385520E+02 -0.34483186304E+02 -0.31900790238E+03  0.32137747321E+03  0.00000000000E+00 0. -1.
<mgrwt>
<rscale>  1 0.30000000E+03</rscale>
<asrwt>0</asrwt>
<pdfrwt beam="1">  1       21 0.63494426E-02 0.30000000E+03</pdfrwt>
<pdfrwt beam="2">0</pdfrwt>
<totfact> 0.19109403E+04</totfact>
</mgrwt>
</event>
<event>
 6    1  0.1273846E-001  0.3000000E+03  0.7818608E-02  0.1093470E+00
         21   -1    0    0  501  502  0.00000000000E+00  0.00000000000E+00  0.20460340971E+01  0.20460340971E+01  0.00000000000E+00 0. -1.
         13   -1    0    0    0    0 -0.00000000000E+00 -0.00000000000E+00 -0.10000000000E+04  0.10000000000E+04  0.00000000000E+00 0.  1.
    9000005    2    1    2  501    0 -0.41461175299E+02 -0.14087419052E+02 -0.60761012847E+03  0.60925372784E+03  0.90858260668E+01 0.  0.
         13    1    3    3    0    0 -0.28188410548E+02 -0.85578724107E+01 -0.46097463193E+03  0.46191496506E+03  0.00000000000E+00 0.  1.
          1    1    3    3  501    0 -0.13272764750E+02 -0.55295466414E+01 -0.14663549654E+03  0.14733876278E+03  0.00000000000E+00 0.  1.
         -1    1    1    2    0  502  0.41461175299E+02  0.14087419052E+02 -0.39034383743E+03  0.39279230626E+03  0.00000000000E+00 0. -1.
<mgrwt>
<rscale>  1 0.30000000E+03</rscale>
<asrwt>0</asrwt>
<pdfrwt beam="1">  1       21 0.74401397E-02 0.30000000E+03</pdfrwt>
<pdfrwt beam="2">0</pdfrwt>
<totfact> 0.14506538E+04</totfact>
</mgrwt>
</event>
<event>
 6    1  0.1273846E-001  0.3000000E+03  0.7818608E-02  0.1093470E+00
         21   -1    0    0  501  502  0.00000000000E+00  0.00000000000E+00  0.20826134987E+01  0.20826134987E+01  0.00000000000E+00 0. -1.
         13   -1    0    0    0    0 -0.00000000000E+00 -0.00000000000E+00 -0.10000000000E+04  0.10000000000E+04  0.00000000000E+00 0.  1.
    9000005    2    1    2  501    0 -0.98845675494E+01 -0.42227019557E+02 -0.65359112501E+03  0.65503593046E+03  0.31441444359E+01 0.  0.
         13    1    3    3    0    0 -0.96330036064E+01 -0.41876785266E+02 -0.65004028206E+03  0.65145899963E+03  0.00000000000E+00 0.  1.
          1    1    3    3  501    0 -0.25156394299E+00 -0.35023429093E+00 -0.35508429469E+01  0.35769308225E+01  0.00000000000E+00 0.  1.
         -1    1    1    2    0  502  0.98845675494E+01  0.42227019557E+02 -0.34432626149E+03  0.34704668304E+03  0.00000000000E+00 0. -1.
<mgrwt>
<rscale>  1 0.30000000E+03</rscale>
<asrwt>0</asrwt>
<pdfrwt beam="1">  1       21 0.75731560E-02 0.30000000E+03</pdfrwt>
<pdfrwt beam="2">0</pdfrwt>
<totfact> 0.14063356E+04</totfact>
</mgrwt>
</event>
<event>
 6    1  0.1273846E-001  0.3000000E+03  0.7818608E-02  0.1093470E+00
         21   -1    0    0  501  502  0.00000000000E+00  0.00000000000E+00  0.18996140900E+01  0.18996140900E+01  0.00000000000E+00 0. -1.
         13   -1    0    0    0    0 -0.00000000000E+00 -0.00000000000E+00 -0.10000000000E+04  0.10000000000E+04  0.00000000000E+00 0.  1.
    9000005    2    1    2  501    0  0.64718115873E+01 -0.37762371339E+02 -0.73702175671E+03  0.73802477319E+03  0.34080706718E+01 0.  0.
         13    1    3    3    0    0  0.11360639030E+01 -0.13495412087E+02 -0.23849374316E+03  0.23887796532E+03  0.00000000000E+00 0.  1.
          1    1    3    3  501    0  0.53357476843E+01 -0.24266959252E+02 -0.49852801355E+03  0.49914680788E+03  0.00000000000E+00 0.  1.
         -3    1    1    2    0  502 -0.64718115873E+01  0.37762371339E+02 -0.26107862920E+03  0.26387484090E+03  0.00000000000E+00 0. -1.
<mgrwt>
<rscale>  1 0.30000000E+03</rscale>
<asrwt>0</asrwt>
<pdfrwt beam="1">  1       21 0.69077022E-02 0.30000000E+03</pdfrwt>
<pdfrwt beam="2">0</pdfrwt>
<totfact> 0.16512143E+04</totfact>
</mgrwt>
</event>
<event>
 6    1  0.1273846E-001  0.3000000E+03  0.7818608E-02  0.1093470E+00
         21   -1    0    0  501  502  0.00000000000E+00  0.00000000000E+00  0.54774885327E+01  0.54774885327E+01  0.00000000000E+00 0. -1.
         13   -1    0    0    0    0 -0.00000000000E+00 -0.00000000000E+00 -0.10000000000E+04  0.10000000000E+04  0.00000000000E+00 0.  1.
    9000005    2    1    2  501    0  0.40055672784E+02  0.14927559615E-01 -0.91994893576E+03  0.92082717643E+03  0.34910320960E+01 0.  0.
         13    1    3    3    0    0  0.21987479354E+02 -0.17157863978E+01 -0.50952770140E+03  0.51000477612E+03  0.00000000000E+00 0.  1.
          3    1    3    3  501    0  0.18068193430E+02  0.17307139574E+01 -0.41042123436E+03  0.41082240031E+03  0.00000000000E+00 0.  1.
         -3    1    1    2    0  502 -0.40055672784E+02 -0.14927559615E-01 -0.74573575710E+02  0.84650312104E+02  0.00000000000E+00 0. -1.
<mgrwt>
<rscale>  1 0.30000000E+03</rscale>
<asrwt>0</asrwt>
<pdfrwt beam="1">  1       21 0.19918182E-01 0.30000000E+03</pdfrwt>
<pdfrwt beam="2">0</pdfrwt>
<totfact> 0.24180652E+03</totfact>
</mgrwt>
</event>
<event>
 6    1  0.1273846E-001  0.3000000E+03  0.7818608E-02  0.1093470E+00
         21   -1    0    0  501  502  0.00000000000E+00  0.00000000000E+00  0.30026653202E+01  0.30026653202E+01  0.00000000000E+00 0. -1.
         13   -1    0    0    0    0 -0.00000000000E+00 -0.00000000000E+00 -0.10000000000E+04  0.10000000000E+04  0.00000000000E+00 0.  1.
    9000005    2    1    2  501    0  0.26127855580E+01  0.30775475990E+02 -0.91261304411E+03  0.91314352519E+03  0.38174254940E+01 0.  0.
         13    1    3    3    0    0  0.34415343339E+01  0.26990193748E+02 -0.78318588828E+03  0.78365837603E+03  0.00000000000E+00 0.  1.
          1    1    3    3  501    0 -0.82874877588E+00  0.37852822426E+01 -0.12942715583E+03  0.12948514916E+03  0.00000000000E+00 0.  1.
         -3    1    1    2    0  502 -0.26127855580E+01 -0.30775475990E+02 -0.84384290570E+02  0.89859140135E+02  0.00000000000E+00 0. -1.
<mgrwt>
<rscale>  1 0.30000000E+03</rscale>
<asrwt>0</asrwt>
<pdfrwt beam="1">  1       21 0.10918806E-01 0.30000000E+03</pdfrwt>
<pdfrwt beam="2">0</pdfrwt>
<totfact> 0.73493022E+03</totfact>
</mgrwt>
</event>
<event>
 6    1  0.1273846E-001  0.3000000E+03  0.7818608E-02  0.1093470E+00
         21   -1    0    0  501  502  0.00000000000E+00  0.00000000000E+00  0.13710230493E+01  0.13710230493E+01  0.00000000000E+00 0. -1.
         13   -1    0    0    0    0 -0.00000000000E+00 -0.00000000000E+00 -0.10000000000E+04  0.10000000000E+04  0.00000000000E+00 0.  1.
    9000005    2    1    2  501    0  0.22595779556E+01  0.32445595393E+02 -0.26271469406E+03  0.26473837776E+03  0.30944834117E+01 0.  0.
         13    1    3    3    0    0  0.25209881304E+00  0.95899494950E+01 -0.66963827816E+02  0.67647504913E+02  0.00000000000E+00 0.  1.
          3    1    3    3  501    0  0.20074791426E+01  0.22855645898E+02 -0.19575086625E+03  0.19709087284E+03  0.00000000000E+00 0.  1.
         -3    1    1    2    0  502 -0.22595779556E+01 -0.32445595393E+02 -0.73591428289E+03  0.73663264529E+03  0.00000000000E+00 0. -1.
<mgrwt>
<rscale>  1 0.30000000E+03</rscale>
<asrwt>0</asrwt>
<pdfrwt beam="1">  1       21 0.49855489E-02 0.30000000E+03</pdfrwt>
<pdfrwt beam="2">0</pdfrwt>
<totfact> 0.28947123E+04</totfact>
</mgrwt>
</event>
<event>
 6    1  0.1273846E-001  0.3000000E+03  0.7818608E-02  0.1093470E+00
         21   -1    0    0  501  502  0.00000000000E+00  0.00000000000E+00  0.23419712584E+01  0.23419712584E+01  0.00000000000E+00 0. -1.
         13   -1    0    0    0    0 -0.00000000000E+00 -0.00000000000E+00 -0.10000000000E+04  0.10000000000E+04  0.00000000000E+00 0.  1.
    9000005    2    1    2  501    0  0.36855420582E+02 -0.11269057648E+02 -0.80142805091E+03  0.80236317767E+03  0.37992635171E+01 0.  0.
         13    1    3    3    0    0  0.25778420542E+02 -0.66633991209E+01 -0.52440310585E+03  0.52507860866E+03  0.00000000000E+00 0.  1.
          1    1    3    3  501    0  0.11077000041E+02 -0.46056585273E+01 -0.27702494507E+03  0.27728456901E+03  0.00000000000E+00 0.  1.
         -3    1    1    2    0  502 -0.36855420582E+02  0.11269057648E+02 -0.19622997783E+03  0.19997879359E+03  0.00000000000E+00 0. -1.
<mgrwt>
<rscale>  1 0.30000000E+03</rscale>
<asrwt>0</asrwt>
<pdfrwt beam="1">  1       21 0.85162771E-02 0.30000000E+03</pdfrwt>
<pdfrwt beam="2">0</pdfrwt>
<totfact> 0.11442592E+04</totfact>
</mgrwt>
</event>
<event>
 6    1  0.1273846E-001  0.3000000E+03  0.7818608E-02  0.1093470E+00
         21   -1    0    0  501  502  0.00000000000E+00  0.00000000000E+00  0.17415253012E+01  0.17415253012E+01  0.00000000000E+00 0. -1.
         13   -1    0    0    0    0 -0.00000000000E+00 -0.00000000000E+00 -0.10000000000E+04  0.10000000000E+04  0.00000000000E+00 0.  1.
    9000005    2    1    2  501    0 -0.28898372894E+02 -0.22705529113E+02 -0.73545703054E+03  0.73638279441E+03  0.34524085005E+01 0.  0.
         13    1    3    3    0    0 -0.19954502764E+01 -0.62170225042E+00 -0.36792631393E+02  0.36851947850E+02  0.00000000000E+00 0.  1.
          3    1    3    3  501    0 -0.26902922617E+02 -0.22083826862E+02 -0.69866439915E+03  0.69953084656E+03  0.00000000000E+00 0.  1.
         -1    1    1    2    0  502  0.28898372894E+02  0.22705529113E+02 -0.26280144416E+03  0.26535873089E+03  0.00000000000E+00 0. -1.
<mgrwt>
<rscale>  1 0.30000000E+03</rscale>
<asrwt>0</asrwt>
<pdfrwt beam="1">  1       21 0.63328326E-02 0.30000000E+03</pdfrwt>
<pdfrwt beam="2">0</pdfrwt>
<totfact> 0.19196145E+04</totfact>
</mgrwt>
</event>
<event>
 6    1  0.1273846E-001  0.3000000E+03  0.7818608E-02  0.1093470E+00
         21   -1    0    0  501  502  0.00000000000E+00  0.00000000000E+00  0.17747056620E+01  0.17747056620E+01  0.00000000000E+00 0. -1.
         13   -1    0    0    0    0 -0.00000000000E+00 -0.00000000000E+00 -0.10000000000E+04  0.10000000000E+04  0.00000000000E+00 0.  1.
    9000005    2    1    2  501    0  0.38822019736E+02 -0.15358194347E+02 -0.49244513859E+03  0.49427437137E+03  0.78686930348E+01 0.  0.
         13    1    3    3    0    0  0.24519325441E+02 -0.12775039448E+02 -0.29367021717E+03  0.29496880412E+03  0.00000000000E+00 0.  1.
          1    1    3    3  501    0  0.14302694295E+02 -0.25831548995E+01 -0.19877492142E+03  0.19930556725E+03  0.00000000000E+00 0.  1.
         -3    1    1    2    0  502 -0.38822019736E+02  0.15358194347E+02 -0.50578015575E+03  0.50750033429E+03  0.00000000000E+00 0. -1.
<mgrwt>
<rscale>  1 0.30000000E+03</rscale>
<asrwt>0</asrwt>
<pdfrwt beam="1">  1       21 0.64534887E-02 0.30000000E+03</pdfrwt>
<pdfrwt beam="2">0</pdfrwt>
<totfact> 0.18579579E+04</totfact>
</mgrwt>
</event>
<event>
 6    1  0.1273846E-001  0.3000000E+03  0.7818608E-02  0.1093470E+00
         21   -1    0    0  501  502  0.00000000000E+00  0.00000000000E+00  0.12900314728E+01  0.12900314728E+01  0.00000000000E+00 0. -1.
         13   -1    0    0    0    0 -0.00000000000E+00 -0.00000000000E+00 -0.10000000000E+04  0.10000000000E+04  0.00000000000E+00 0.  1.
    9000005    2    1    2  501    0  0.24139234456E+02  0.26231959589E+02 -0.55382494194E+03  0.55497903539E+03  0.29740649097E+01 0.  0.
         13    1    3    3    0    0  0.49691664162E+01  0.69285345035E+01 -0.12114777238E+03  0.12144743702E+03  0.00000000000E+00 0.  1.
          1    1    3    3  501    0  0.19170068040E+02  0.19303425086E+02 -0.43267716956E+03  0.43353159837E+03  0.00000000000E+00 0.  1.
         -1    1    1    2    0  502 -0.24139234456E+02 -0.26231959589E+02 -0.44488502659E+03  0.44631099608E+03  0.00000000000E+00 0. -1.
<mgrwt>
<rscale>  1 0.30000000E+03</rscale>
<asrwt>0</asrwt>
<pdfrwt beam="1">  1       21 0.46910334E-02 0.30000000E+03</pdfrwt>
<pdfrwt beam="2">0</pdfrwt>
<totfact> 0.32108409E+04</totfact>
</mgrwt>
</event>
<event>
 6    1  0.1273846E-001  0.3000000E+03  0.7818608E-02  0.1093470E+00
         21   -1    0    0  501  502  0.00000000000E+00  0.00000000000E+00  0.18469872402E+01  0.18469872402E+01  0.00000000000E+00 0. -1.
         13   -1    0    0    0    0 -0.00000000000E+00 -0.00000000000E+00 -0.10000000000E+04  0.10000000000E+04  0.00000000000E+00 0.  1.
    9000005    2    1    2  501    0  0.25155183598E+02 -0.18593850039E+02 -0.84223461052E+03  0.84282163493E+03  0.32641420100E+01 0.  0.
         13    1    3    3    0    0  0.16669632581E+01 -0.18782593060E+01 -0.89329522802E+02  0.89364815608E+02  0.00000000000E+00 0.  1.
          1    1    3    3  501    0  0.23488220340E+02 -0.16715590733E+02 -0.75290508772E+03  0.75345681932E+03  0.00000000000E+00 0.  1.
         -1    1    1    2    0  502 -0.25155183598E+02  0.18593850039E+02 -0.15591840224E+03  0.15902535231E+03  0.00000000000E+00 0. -1.
<mgrwt>
<rscale>  1 0.30000000E+03</rscale>
<asrwt>0</asrwt>
<pdfrwt beam="1">  1       21 0.67163314E-02 0.30000000E+03</pdfrwt>
<pdfrwt beam="2">0</pdfrwt>
<totfact> 0.17337798E+04</totfact>
</mgrwt>
</event>
<event>
 6    1  0.1273846E-001  0.3000000E+03  0.7818608E-02  0.1093470E+00
         21   -1    0    0  501  502  0.00000000000E+00  0.00000000000E+00  0.18849518188E+01  0.18849518188E+01  0.00000000000E+00 0. -1.
         13   -1    0    0    0    0 -0.00000000000E+00 -0.00000000000E+00 -0.10000000000E+04  0.10000000000E+04  0.00000000000E+00 0.  1.
    9000005    2    1    2  501    0 -0.28035396706E+02 -0.17349211702E+02 -0.82471559692E+03  0.82537900769E+03  0.27770338114E+01 0.  0.
         13    1    3    3    0    0 -0.27933848867E+02 -0.17066170817E+02 -0.81144960577E+03  0.81210960886E+03  0.00000000000E+00 0.  1.
          3    1    3    3  501    0 -0.10154783902E+00 -0.28304088456E+00 -0.13265991153E+02  0.13269398833E+02  0.00000000000E+00 0.  1.
         -3    1    1    2    0  502  0.28035396706E+02  0.17349211702E+02 -0.17339945126E+03  0.17650594412E+03  0.00000000000E+00 0. -1.
<mgrwt>
<rscale>  1 0.30000000E+03</rscale>
<asrwt>0</asrwt>
<pdfrwt beam="1">  1       21 0.68543847E-02 0.30000000E+03</pdfrwt>
<pdfrwt beam="2">0</pdfrwt>
<totfact> 0.16736014E+04</totfact>
</mgrwt>
</event>
<event>
 6    1  0.1273846E-001  0.3000000E+03  0.7818608E-02  0.1093470E+00
         21   -1    0    0  501  502  0.00000000000E+00  0.00000000000E+00  0.17307570671E+01  0.17307570671E+01  0.00000000000E+00 0. -1.
         13   -1    0    0    0    0 -0.00000000000E+00 -0.00000000000E+00 -0.10000000000E+04  0.10000000000E+04  0.00000000000E+00 0.  1.
    9000005    2    1    2  501    0 -0.36957626865E+02 -0.66340784192E+01 -0.71402594809E+03  0.71501813467E+03  0.28286353591E+01 0.  0.
         13    1    3    3    0    0 -0.14544762124E+01 -0.28921588567E-02 -0.19819198869E+02  0.19872497407E+02  0.00000000000E+00 0.  1.
          3    1    3    3  501    0 -0.35503150652E+02 -0.66311862604E+01 -0.69420674922E+03  0.69514563726E+03  0.00000000000E+00 0.  1.
         -1    1    1    2    0  502  0.36957626865E+02  0.66340784192E+01 -0.28424329485E+03  0.28671262240E+03  0.00000000000E+00 0. -1.
<mgrwt>
<rscale>  1 0.30000000E+03</rscale>
<asrwt>0</asrwt>
<pdfrwt beam="1">  1       21 0.62936753E-02 0.30000000E+03</pdfrwt>
<pdfrwt beam="2">0</pdfrwt>
<totfact> 0.19403066E+04</totfact>
</mgrwt>
</event>
<event>
 6    1  0.1273846E-001  0.3000000E+03  0.7818608E-02  0.1093470E+00
         21   -1    0    0  501  502  0.00000000000E+00  0.00000000000E+00  0.20026497476E+01  0.20026497476E+01  0.00000000000E+00 0. -1.
         13   -1    0    0    0    0 -0.00000000000E+00 -0.00000000000E+00 -0.10000000000E+04  0.10000000000E+04  0.00000000000E+00 0.  1.
    9000005    2    1    2  501    0  0.28552149939E+02 -0.29201523177E+02 -0.70259738512E+03  0.70379283498E+03  0.36489414132E+01 0.  0.
         13    1    3    3    0    0  0.12726316348E+02 -0.10692036344E+02 -0.27214426720E+03  0.27265139086E+03  0.00000000000E+00 0.  1.
          3    1    3    3  501    0  0.15825833591E+02 -0.18509486832E+02 -0.43045311792E+03  0.43114144413E+03  0.00000000000E+00 0.  1.
         -3    1    1    2    0  502 -0.28552149939E+02  0.29201523177E+02 -0.29539996513E+03  0.29820981476E+03  0.00000000000E+00 0. -1.
<mgrwt>
<rscale>  1 0.30000000E+03</rscale>
<asrwt>0</asrwt>
<pdfrwt beam="1">  1       21 0.72823781E-02 0.30000000E+03</pdfrwt>
<pdfrwt beam="2">0</pdfrwt>
<totfact> 0.15060372E+04</totfact>
</mgrwt>
</event>
<event>
 6    1  0.1273846E-001  0.3000000E+03  0.7818608E-02  0.1093470E+00
         21   -1    0    0  501  502  0.00000000000E+00  0.00000000000E+00  0.15466438613E+01  0.15466438613E+01  0.00000000000E+00 0. -1.
         13   -1    0    0    0    0 -0.00000000000E+00 -0.00000000000E+00 -0.10000000000E+04  0.10000000000E+04  0.00000000000E+00 0.  1.
    9000005    2    1    2  501    0 -0.23025117821E+02 -0.21555395950E+02 -0.79769502226E+03  0.79832582857E+03  0.34624963618E+01 0.  0.
         13    1    3    3    0    0 -0.43689611655E+01 -0.49956457112E+01 -0.13835279870E+03  0.13851188110E+03  0.00000000000E+00 0.  1.
          1    1    3    3  501    0 -0.18656156655E+02 -0.16559750239E+02 -0.65934222356E+03  0.65981394747E+03  0.00000000000E+00 0.  1.
         -1    1    1    2    0  502  0.23025117821E+02  0.21555395950E+02 -0.20075833388E+03  0.20322081529E+03  0.00000000000E+00 0. -1.
<mgrwt>
<rscale>  1 0.30000000E+03</rscale>
<asrwt>0</asrwt>
<pdfrwt beam="1">  1       21 0.56241714E-02 0.30000000E+03</pdfrwt>
<pdfrwt beam="2">0</pdfrwt>
<totfact> 0.23554194E+04</totfact>
</mgrwt>
</event>
<event>
 6    1  0.1273846E-001  0.3000000E+03  0.7818608E-02  0.1093470E+00
         21   -1    0    0  501  502  0.00000000000E+00  0.00000000000E+00  0.15478108561E+01  0.15478108561E+01  0.00000000000E+00 0. -1.
         13   -1    0    0    0    0 -0.00000000000E+00 -0.00000000000E+00 -0.10000000000E+04  0.10000000000E+04  0.00000000000E+00 0.  1.
    9000005    2    1    2  501    0 -0.24465855962E+02 -0.26937422248E+02 -0.67624216428E+03  0.67728942169E+03  0.96588379365E+01 0.  0.
         13    1    3    3    0    0 -0.22805015444E+02 -0.27513777398E+02 -0.62876973148E+03  0.62978444876E+03  0.00000000000E+00 0.  1.
          3    1    3    3  501    0 -0.16608405173E+01  0.57635514980E+00 -0.47472432803E+02  0.47504972926E+02  0.00000000000E+00 0.  1.
         -1    1    1    2    0  502  0.24465855962E+02  0.26937422248E+02 -0.32221002486E+03  0.32425838917E+03  0.00000000000E+00 0. -1.
<mgrwt>
<rscale>  1 0.30000000E+03</rscale>
<asrwt>0</asrwt>
<pdfrwt beam="1">  1       21 0.56284150E-02 0.30000000E+03</pdfrwt>
<pdfrwt beam="2">0</pdfrwt>
<totfact> 0.23523698E+04</totfact>
</mgrwt>
</event>
<event>
 6    1  0.1273846E-001  0.3000000E+03  0.7818608E-02  0.1093470E+00
         21   -1    0    0  501  502  0.00000000000E+00  0.00000000000E+00  0.97576707859E+01  0.97576707859E+01  0.00000000000E+00 0. -1.
         13   -1    0    0    0    0 -0.00000000000E+00 -0.00000000000E+00 -0.10000000000E+04  0.10000000000E+04  0.00000000000E+00 0.  1.
    9000005    2    1    2  501    0  0.31735960878E+02  0.31832402906E+02 -0.94466905786E+03  0.94574676429E+03  0.41036830122E+01 0.  0.
         13    1    3    3    0    0  0.90334829152E+01  0.83656753908E+01 -0.22334158448E+03  0.22368069138E+03  0.00000000000E+00 0.  1.
          3    1    3    3  501    0  0.22702477962E+02  0.23466727516E+02 -0.72132747338E+03  0.72206607292E+03  0.00000000000E+00 0.  1.
         -3    1    1    2    0  502 -0.31735960878E+02 -0.31832402906E+02 -0.45573271357E+02  0.64010906491E+02  0.00000000000E+00 0. -1.
<mgrwt>
<rscale>  1 0.30000000E+03</rscale>
<asrwt>0</asrwt>
<pdfrwt beam="1">  1       21 0.35482514E-01 0.30000000E+03</pdfrwt>
<pdfrwt beam="2">0</pdfrwt>
<totfact> 0.77379799E+02</totfact>
</mgrwt>
</event>
<event>
 6    1  0.1273846E-001  0.3000000E+03  0.7818608E-02  0.1093470E+00
         21   -1    0    0  501  502  0.00000000000E+00  0.00000000000E+00  0.74651244298E+01  0.74651244298E+01  0.00000000000E+00 0. -1.
         13   -1    0    0    0    0 -0.00000000000E+00 -0.00000000000E+00 -0.10000000000E+04  0.10000000000E+04  0.00000000000E+00 0.  1.
    9000005    2    1    2  501    0 -0.31939523544E+02 -0.12827398715E+02 -0.95828841039E+03  0.95891107517E+03  0.30161693182E+01 0.  0.
         13    1    3    3    0    0 -0.70847850205E+01 -0.35538923631E+01 -0.19172774753E+03  0.19189151493E+03  0.00000000000E+00 0.  1.
          3    1    3    3  501    0 -0.24854738523E+02 -0.92735063518E+01 -0.76656066286E+03  0.76701956024E+03  0.00000000000E+00 0.  1.
         -1    1    1    2    0  502  0.31939523544E+02  0.12827398715E+02 -0.34246465180E+02  0.48554049258E+02  0.00000000000E+00 0. -1.
<mgrwt>
<rscale>  1 0.30000000E+03</rscale>
<asrwt>0</asrwt>
<pdfrwt beam="1">  1       21 0.27145964E-01 0.30000000E+03</pdfrwt>
<pdfrwt beam="2">0</pdfrwt>
<totfact> 0.13262753E+03</totfact>
</mgrwt>
</event>
<event>
 6    1  0.1273846E-001  0.3000000E+03  0.7818608E-02  0.1093470E+00
         21   -1    0    0  501  502  0.00000000000E+00  0.00000000000E+00  0.22654403205E+01  0.22654403205E+01  0.00000000000E+00 0. -1.
         13   -1    0    0    0    0 -0.00000000000E+00 -0.00000000000E+00 -0.10000000000E+04  0.10000000000E+04  0.00000000000E+00 0.  1.
    9000005    2    1    2  501    0 -0.23489163899E+02  0.25759625484E+02 -0.83974609040E+03  0.84047651749E+03  0.34613554979E+01 0.  0.
         13    1    3    3    0    0 -0.43223672856E+01  0.62185152871E+01 -0.20766028211E+03  0.20779832906E+03  0.00000000000E+00 0.  1.
          1    1    3    3  501    0 -0.19166796614E+02  0.19541110197E+02 -0.63208580829E+03  0.63267818844E+03  0.00000000000E+00 0.  1.
         -3    1    1    2    0  502  0.23489163899E+02 -0.25759625484E+02 -0.15798846927E+03  0.16178892283E+03  0.00000000000E+00 0. -1.
<mgrwt>
<rscale>  1 0.30000000E+03</rscale>
<asrwt>0</asrwt>
<pdfrwt beam="1">  1       21 0.82379822E-02 0.30000000E+03</pdfrwt>
<pdfrwt beam="2">0</pdfrwt>
<totfact> 0.12132261E+04</totfact>
</mgrwt>
</event>
<event>
 6    1  0.1273846E-001  0.3000000E+03  0.7818608E-02  0.1093470E+00
         21   -1    0    0  501  502  0.00000000000E+00  0.00000000000E+00  0.21834575474E+01  0.21834575474E+01  0.00000000000E+00 0. -1.
         13   -1    0    0    0    0 -0.00000000000E+00 -0.00000000000E+00 -0.10000000000E+04  0.10000000000E+04  0.00000000000E+00 0.  1.
    9000005    2    1    2  501    0 -0.78375289113E+01 -0.33185534620E+02 -0.84129919407E+03  0.84199485960E+03  0.28815071474E+01 0.  0.
         13    1    3    3    0    0 -0.41826982393E+01 -0.20219774782E+02 -0.47698807201E+03  0.47743476528E+03  0.00000000000E+00 0.  1.
          3    1    3    3  501    0 -0.36548306719E+01 -0.12965759839E+02 -0.36431112206E+03  0.36456009432E+03  0.00000000000E+00 0.  1.
         -3    1    1    2    0  502  0.78375289113E+01  0.33185534620E+02 -0.15651734838E+03  0.16018859795E+03  0.00000000000E+00 0. -1.
<mgrwt>
<rscale>  1 0.30000000E+03</rscale>
<asrwt>0</asrwt>
<pdfrwt beam="1">  1       21 0.79398624E-02 0.30000000E+03</pdfrwt>
<pdfrwt beam="2">0</pdfrwt>
<totfact> 0.12944258E+04</totfact>
</mgrwt>
</event>
<event>
 6    1  0.1273846E-001  0.3000000E+03  0.7818608E-02  0.1093470E+00
         21   -1    0    0  501  502  0.00000000000E+00  0.00000000000E+00  0.14644986896E+01  0.14644986896E+01  0.00000000000E+00 0. -1.
         13   -1    0    0    0    0 -0.00000000000E+00 -0.00000000000E+00 -0.10000000000E+04  0.10000000000E+04  0.00000000000E+00 0.  1.
    9000005    2    1    2  501    0  0.33235611785E+02 -0.18195298831E+02 -0.43564477599E+03  0.43729994517E+03  0.30325587618E+01 0.  0.
         13    1    3    3    0    0  0.29645541695E+02 -0.17111537304E+02 -0.39768125328E+03  0.39915165296E+03  0.00000000000E+00 0.  1.
          1    1    3    3  501    0  0.35900700898E+01 -0.10837615268E+01 -0.37963522712E+02  0.38148292216E+02  0.00000000000E+00 0.  1.
         -1    1    1    2    0  502 -0.33235611785E+02  0.18195298831E+02 -0.56289072532E+03  0.56416455352E+03  0.00000000000E+00 0. -1.
<mgrwt>
<rscale>  1 0.30000000E+03</rscale>
<asrwt>0</asrwt>
<pdfrwt beam="1">  1       21 0.53254610E-02 0.30000000E+03</pdfrwt>
<pdfrwt beam="2">0</pdfrwt>
<totfact> 0.25863962E+04</totfact>
</mgrwt>
</event>
<event>
 6    1  0.1273846E-001  0.3000000E+03  0.7818608E-02  0.1093470E+00
         21   -1    0    0  501  502  0.00000000000E+00  0.00000000000E+00  0.17557361971E+01  0.17557361971E+01  0.00000000000E+00 0. -1.
         13   -1    0    0    0    0 -0.00000000000E+00 -0.00000000000E+00 -0.10000000000E+04  0.10000000000E+04  0.00000000000E+00 0.  1.
    9000005    2    1    2  501    0 -0.10802879863E+02 -0.40295131495E+02 -0.46382674424E+03  0.46571237503E+03  0.35167809574E+01 0.  0.
         13    1    3    3    0    0 -0.41335356167E+01 -0.19824281613E+02 -0.23971302543E+03  0.24056687806E+03  0.00000000000E+00 0.  1.
          1    1    3    3  501    0 -0.66693442458E+01 -0.20470849881E+02 -0.22411371880E+03  0.22514549697E+03  0.00000000000E+00 0.  1.
         -3    1    1    2    0  502  0.10802879863E+02  0.40295131495E+02 -0.53441751957E+03  0.53604336117E+03  0.00000000000E+00 0. -1.
<mgrwt>
<rscale>  1 0.30000000E+03</rscale>
<asrwt>0</asrwt>
<pdfrwt beam="1">  1       21 0.63845087E-02 0.30000000E+03</pdfrwt>
<pdfrwt beam="2">0</pdfrwt>
<totfact> 0.18928257E+04</totfact>
</mgrwt>
</event>
<event>
 6    1  0.1273846E-001  0.3000000E+03  0.7818608E-02  0.1093470E+00
         21   -1    0    0  501  502  0.00000000000E+00  0.00000000000E+00  0.19884416096E+01  0.19884416096E+01  0.00000000000E+00 0. -1.
         13   -1    0    0    0    0 -0.00000000000E+00 -0.00000000000E+00 -0.10000000000E+04  0.10000000000E+04  0.00000000000E+00 0.  1.
    9000005    2    1    2  501    0  0.32676353650E+02 -0.23941334287E+02 -0.70728313476E+03  0.70845147991E+03  0.36242378675E+01 0.  0.
         13    1    3    3    0    0  0.28833449505E+02 -0.22197007537E+02 -0.62094742432E+03  0.62201268374E+03  0.00000000000E+00 0.  1.
          3    1    3    3  501    0  0.38429041456E+01 -0.17443267497E+01 -0.86335710432E+02  0.86438796174E+02  0.00000000000E+00 0.  1.
         -3    1    1    2    0  502 -0.32676353650E+02  0.23941334287E+02 -0.29072842363E+03  0.29353696170E+03  0.00000000000E+00 0. -1.
<mgrwt>
<rscale>  1 0.30000000E+03</rscale>
<asrwt>0</asrwt>
<pdfrwt beam="1">  1       21 0.72307120E-02 0.30000000E+03</pdfrwt>
<pdfrwt beam="2">0</pdfrwt>
<totfact> 0.15248739E+04</totfact>
</mgrwt>
</event>
<event>
 6    1  0.1273846E-001  0.3000000E+03  0.7818608E-02  0.1093470E+00
         21   -1    0    0  501  502  0.00000000000E+00  0.00000000000E+00  0.22372620649E+01  0.22372620649E+01  0.00000000000E+00 0. -1.
         13   -1    0    0    0    0 -0.00000000000E+00 -0.00000000000E+00 -0.10000000000E+04  0.10000000000E+04  0.00000000000E+00 0.  1.
    9000005    2    1    2  501    0 -0.21734258328E+02 -0.27424958142E+02 -0.83570876137E+03  0.83644824665E+03  0.34683088723E+01 0.  0.
         13    1    3    3    0    0 -0.21677418318E+02 -0.26865495710E+02 -0.81304694352E+03  0.81377945273E+03  0.00000000000E+00 0.  1.
          1    1    3    3  501    0 -0.56840009571E-01 -0.55946243255E+00 -0.22661817858E+02  0.22668793917E+02  0.00000000000E+00 0.  1.
         -1    1    1    2    0  502  0.21734258328E+02  0.27424958142E+02 -0.16205397656E+03  0.16578901542E+03  0.00000000000E+00 0. -1.
<mgrwt>
<rscale>  1 0.30000000E+03</rscale>
<asrwt>0</asrwt>
<pdfrwt beam="1">  1       21 0.81355156E-02 0.30000000E+03</pdfrwt>
<pdfrwt beam="2">0</pdfrwt>
<totfact> 0.12402312E+04</totfact>
</mgrwt>
</event>
<event>
 6    1  0.1273846E-001  0.3000000E+03  0.7818608E-02  0.1093470E+00
         21   -1    0    0  501  502  0.00000000000E+00  0.00000000000E+00  0.12058019090E+01  0.12058019090E+01  0.00000000000E+00 0. -1.
         13   -1    0    0    0    0 -0.00000000000E+00 -0.00000000000E+00 -0.10000000000E+04  0.10000000000E+04  0.00000000000E+00 0.  1.
    9000005    2    1    2  501    0 -0.57937475989E+01  0.30672429276E+02 -0.71701784453E+03  0.71770575102E+03  0.35482730102E+01 0.  0.
         13    1    3    3    0    0  0.40944375740E+00  0.93927725927E+00 -0.19462953599E+02  0.19489906330E+02  0.00000000000E+00 0.  1.
          3    1    3    3  501    0 -0.62031913563E+01  0.29733152016E+02 -0.69755489093E+03  0.69821584469E+03  0.00000000000E+00 0.  1.
         -3    1    1    2    0  502  0.57937475989E+01 -0.30672429276E+02 -0.28177635356E+03  0.28350005089E+03  0.00000000000E+00 0. -1.
<mgrwt>
<rscale>  1 0.30000000E+03</rscale>
<asrwt>0</asrwt>
<pdfrwt beam="1">  1       21 0.43847435E-02 0.30000000E+03</pdfrwt>
<pdfrwt beam="2">0</pdfrwt>
<totfact> 0.36007619E+04</totfact>
</mgrwt>
</event>
<event>
 6    1  0.1273846E-001  0.3000000E+03  0.7818608E-02  0.1093470E+00
         21   -1    0    0  501  502  0.00000000000E+00  0.00000000000E+00  0.13306628911E+01  0.13306628911E+01  0.00000000000E+00 0. -1.
         13   -1    0    0    0    0 -0.00000000000E+00 -0.00000000000E+00 -0.10000000000E+04  0.10000000000E+04  0.00000000000E+00 0.  1.
    9000005    2    1    2  501    0 -0.37079594483E+01 -0.35326289841E+02 -0.61044801862E+03  0.61148776140E+03  0.29670157066E+01 0.  0.
         13    1    3    3    0    0 -0.99742084872E+00 -0.22363530935E+02 -0.37485672826E+03  0.37552455191E+03  0.00000000000E+00 0.  1.
          3    1    3    3  501    0 -0.27105385996E+01 -0.12962758906E+02 -0.23559129037E+03  0.23596320949E+03  0.00000000000E+00 0.  1.
         -3    1    1    2    0  502  0.37079594483E+01  0.35326289841E+02 -0.38822131849E+03  0.38984290149E+03  0.00000000000E+00 0. -1.
<mgrwt>
<rscale>  1 0.30000000E+03</rscale>
<asrwt>0</asrwt>
<pdfrwt beam="1">  1       21 0.48387844E-02 0.30000000E+03</pdfrwt>
<pdfrwt beam="2">0</pdfrwt>
<totfact> 0.30458509E+04</totfact>
</mgrwt>
</event>
<event>
 6    1  0.1273846E-001  0.3000000E+03  0.7818608E-02  0.1093470E+00
         21   -1    0    0  501  502  0.00000000000E+00  0.00000000000E+00  0.24641649257E+01  0.24641649257E+01  0.00000000000E+00 0. -1.
         13   -1    0    0    0    0 -0.00000000000E+00 -0.00000000000E+00 -0.10000000000E+04  0.10000000000E+04  0.00000000000E+00 0.  1.
    9000005    2    1    2  501    0 -0.19325561872E+02  0.27265178952E+02 -0.86916625805E+03  0.86981569855E+03  0.35352505169E+01 0.  0.
         13    1    3    3    0    0 -0.17491119363E+02  0.22503075095E+02 -0.73424497913E+03  0.73479794299E+03  0.00000000000E+00 0.  1.
          1    1    3    3  501    0 -0.18344425089E+01  0.47621038569E+01 -0.13492127891E+03  0.13501775556E+03  0.00000000000E+00 0.  1.
         -3    1    1    2    0  502  0.19325561872E+02 -0.27265178952E+02 -0.12836957703E+03  0.13264846637E+03  0.00000000000E+00 0. -1.
<mgrwt>
<rscale>  1 0.30000000E+03</rscale>
<asrwt>0</asrwt>
<pdfrwt beam="1">  1       21 0.89606186E-02 0.30000000E+03</pdfrwt>
<pdfrwt beam="2">0</pdfrwt>
<totfact> 0.10459018E+04</totfact>
</mgrwt>
</event>
<event>
 6    1  0.1273846E-001  0.3000000E+03  0.7818608E-02  0.1093470E+00
         21   -1    0    0  501  502  0.00000000000E+00  0.00000000000E+00  0.21552648083E+01  0.21552648083E+01  0.00000000000E+00 0. -1.
         13   -1    0    0    0    0 -0.00000000000E+00 -0.00000000000E+00 -0.10000000000E+04  0.10000000000E+04  0.00000000000E+00 0.  1.
    9000005    2    1    2  501    0 -0.32731645872E+02  0.37493040473E+01 -0.85162378368E+03  0.85226869242E+03  0.36656816323E+01 0.  0.
         13    1    3    3    0    0 -0.10655072800E+02  0.14362837057E+00 -0.24148646968E+03  0.24172146418E+03  0.00000000000E+00 0.  1.
          3    1    3    3  501    0 -0.22076573072E+02  0.36056756768E+01 -0.61013731400E+03  0.61054722824E+03  0.00000000000E+00 0.  1.
         -1    1    1    2    0  502  0.32731645872E+02 -0.37493040473E+01 -0.14622095151E+03  0.14988657239E+03  0.00000000000E+00 0. -1.
<mgrwt>
<rscale>  1 0.30000000E+03</rscale>
<asrwt>0</asrwt>
<pdfrwt beam="1">  1       21 0.78373431E-02 0.30000000E+03</pdfrwt>
<pdfrwt beam="2">0</pdfrwt>
<totfact> 0.13242902E+04</totfact>
</mgrwt>
</event>
<event>
 6    1  0.1273846E-001  0.3000000E+03  0.7818608E-02  0.1093470E+00
         21   -1    0    0  501  502  0.00000000000E+00  0.00000000000E+00  0.65257895787E+01  0.65257895787E+01  0.00000000000E+00 0. -1.
         13   -1    0    0    0    0 -0.00000000000E+00 -0.00000000000E+00 -0.10000000000E+04  0.10000000000E+04  0.00000000000E+00 0.  1.
    9000005    2    1    2  501    0 -0.95459126562E+01 -0.53796249819E+02 -0.86735990177E+03  0.86908496671E+03  0.32123554804E+01 0.  0.
         13    1    3    3    0    0 -0.73803405148E+00 -0.10333510283E+02 -0.15422347862E+03  0.15457104350E+03  0.00000000000E+00 0.  1.
          3    1    3    3  501    0 -0.88078786048E+01 -0.43462739536E+02 -0.71313642314E+03  0.71451392322E+03  0.00000000000E+00 0.  1.
         -1    1    1    2    0  502  0.95459126562E+01  0.53796249819E+02 -0.12611430865E+03  0.13744082287E+03  0.00000000000E+00 0. -1.
<mgrwt>
<rscale>  1 0.30000000E+03</rscale>
<asrwt>0</asrwt>
<pdfrwt beam="1">  1       21 0.23730194E-01 0.30000000E+03</pdfrwt>
<pdfrwt beam="2">0</pdfrwt>
<totfact> 0.17264377E+03</totfact>
</mgrwt>
</event>
<event>
 6    1  0.1273846E-001  0.3000000E+03  0.7818608E-02  0.1093470E+00
         21   -1    0    0  501  502  0.00000000000E+00  0.00000000000E+00  0.13603961112E+01  0.13603961112E+01  0.00000000000E+00 0. -1.
         13   -1    0    0    0    0 -0.00000000000E+00 -0.00000000000E+00 -0.10000000000E+04  0.10000000000E+04  0.00000000000E+00 0.  1.
    9000005    2    1    2  501    0  0.24631372348E+02  0.25135368617E+02 -0.64709676683E+03  0.64806044204E+03  0.31015538535E+01 0.  0.
         13    1    3    3    0    0  0.95368385877E+01  0.76511277992E+01 -0.21971519242E+03  0.22005512224E+03  0.00000000000E+00 0.  1.
          1    1    3    3  501    0  0.15094533760E+02  0.17484240818E+02 -0.42738157442E+03  0.42800531980E+03  0.00000000000E+00 0.  1.
         -3    1    1    2    0  502 -0.24631372348E+02 -0.25135368617E+02 -0.35154283706E+03  0.35329995407E+03  0.00000000000E+00 0. -1.
<mgrwt>
<rscale>  1 0.30000000E+03</rscale>
<asrwt>0</asrwt>
<pdfrwt beam="1">  1       21 0.49469054E-02 0.30000000E+03</pdfrwt>
<pdfrwt beam="2">0</pdfrwt>
<totfact> 0.29333536E+04</totfact>
</mgrwt>
</event>
<event>
 6    1  0.1273846E-001  0.3000000E+03  0.7818608E-02  0.1093470E+00
         21   -1    0    0  501  502  0.00000000000E+00  0.00000000000E+00  0.21180236187E+01  0.21180236187E+01  0.00000000000E+00 0. -1.
         13   -1    0    0    0    0 -0.00000000000E+00 -0.00000000000E+00 -0.10000000000E+04  0.10000000000E+04  0.00000000000E+00 0.  1.
    9000005    2    1    2  501    0  0.73884026208E+01  0.37353670646E+02 -0.78001672493E+03  0.78095032030E+03  0.27251408319E+01 0.  0.
         13    1    3    3    0    0  0.80593755866E+00  0.94048266000E+01 -0.18178617751E+03  0.18203108150E+03  0.00000000000E+00 0.  1.
          1    1    3    3  501    0  0.65824650621E+01  0.27948844046E+02 -0.59823054742E+03  0.59891923879E+03  0.00000000000E+00 0.  1.
         -1    1    1    2    0  502 -0.73884026208E+01 -0.37353670646E+02 -0.21786525145E+03  0.22116770332E+03  0.00000000000E+00 0. -1.
<mgrwt>
<rscale>  1 0.30000000E+03</rscale>
<asrwt>0</asrwt>
<pdfrwt beam="1">  1       21 0.77019203E-02 0.30000000E+03</pdfrwt>
<pdfrwt beam="2">0</pdfrwt>
<totfact> 0.13653959E+04</totfact>
</mgrwt>
</event>
<event>
 6    1  0.1273846E-001  0.3000000E+03  0.7818608E-02  0.1093470E+00
         21   -1    0    0  501  502  0.00000000000E+00  0.00000000000E+00  0.13574523883E+01  0.13574523883E+01  0.00000000000E+00 0. -1.
         13   -1    0    0    0    0 -0.00000000000E+00 -0.00000000000E+00 -0.10000000000E+04  0.10000000000E+04  0.00000000000E+00 0.  1.
    9000005    2    1    2  501    0  0.30765945517E+02 -0.12804652658E+02 -0.71133081511E+03  0.71211960188E+03  0.35066114899E+01 0.  0.
         13    1    3    3    0    0  0.17949690048E+02 -0.66406157490E+01 -0.37456240140E+03  0.37505103879E+03  0.00000000000E+00 0.  1.
          1    1    3    3  501    0  0.12816255469E+02 -0.61640369087E+01 -0.33676841371E+03  0.33706856310E+03  0.00000000000E+00 0.  1.
         -3    1    1    2    0  502 -0.30765945517E+02  0.12804652658E+02 -0.28731173250E+03  0.28923785050E+03  0.00000000000E+00 0. -1.
<mgrwt>
<rscale>  1 0.30000000E+03</rscale>
<asrwt>0</asrwt>
<pdfrwt beam="1">  1       21 0.49362009E-02 0.30000000E+03</pdfrwt>
<pdfrwt beam="2">0</pdfrwt>
<totfact> 0.29441998E+04</totfact>
</mgrwt>
</event>
<event>
 6    1  0.1273846E-001  0.3000000E+03  0.7818608E-02  0.1093470E+00
         21   -1    0    0  501  502  0.00000000000E+00  0.00000000000E+00  0.17811081176E+01  0.17811081176E+01  0.00000000000E+00 0. -1.
         13   -1    0    0    0    0 -0.00000000000E+00 -0.00000000000E+00 -0.10000000000E+04  0.10000000000E+04  0.00000000000E+00 0.  1.
    9000005    2    1    2  501    0  0.34700689478E+02 -0.23802014619E+02 -0.53037107386E+03  0.53204474101E+03  0.27306966752E+01 0.  0.
         13    1    3    3    0    0  0.30939245741E+02 -0.20418607840E+02 -0.45885745500E+03  0.46035238729E+03  0.00000000000E+00 0.  1.
          1    1    3    3  501    0  0.37614437374E+01 -0.33834067797E+01 -0.71513618859E+02  0.71692353726E+02  0.00000000000E+00 0.  1.
         -1    1    1    2    0  502 -0.34700689478E+02  0.23802014619E+02 -0.46784781803E+03  0.46973636711E+03  0.00000000000E+00 0. -1.
<mgrwt>
<rscale>  1 0.30000000E+03</rscale>
<asrwt>0</asrwt>
<pdfrwt beam="1">  1       21 0.64767704E-02 0.30000000E+03</pdfrwt>
<pdfrwt beam="2">0</pdfrwt>
<totfact> 0.18464133E+04</totfact>
</mgrwt>
</event>
<event>
 6    1  0.1273846E-001  0.3000000E+03  0.7818608E-02  0.1093470E+00
         21   -1    0    0  501  502  0.00000000000E+00  0.00000000000E+00  0.83285993661E+01  0.83285993661E+01  0.00000000000E+00 0. -1.
         13   -1    0    0    0    0 -0.00000000000E+00 -0.00000000000E+00 -0.10000000000E+04  0.10000000000E+04  0.00000000000E+00 0.  1.
    9000005    2    1    2  501    0  0.11769744555E+02 -0.75671158751E+02 -0.76991337468E+03  0.77371983306E+03  0.33353265142E+01 0.  0.
         13    1    3    3    0    0  0.34504751650E+01 -0.18188372397E+02 -0.19940903945E+03  0.20026654160E+03  0.00000000000E+00 0.  1.
          3    1    3    3  501    0  0.83192693896E+01 -0.57482786354E+02 -0.57050433523E+03  0.57345329146E+03  0.00000000000E+00 0.  1.
         -3    1    1    2    0  502 -0.11769744555E+02  0.75671158751E+02 -0.22175802596E+03  0.23460876631E+03  0.00000000000E+00 0. -1.
<mgrwt>
<rscale>  1 0.30000000E+03</rscale>
<asrwt>0</asrwt>
<pdfrwt beam="1">  1       21 0.30285880E-01 0.30000000E+03</pdfrwt>
<pdfrwt beam="2">0</pdfrwt>
<totfact> 0.10668312E+03</totfact>
</mgrwt>
</event>
<event>
 6    1  0.1273846E-001  0.3000000E+03  0.7818608E-02  0.1093470E+00
         21   -1    0    0  501  502  0.00000000000E+00  0.00000000000E+00  0.39230210121E+01  0.39230210121E+01  0.00000000000E+00 0. -1.
         13   -1    0    0    0    0 -0.00000000000E+00 -0.00000000000E+00 -0.10000000000E+04  0.10000000000E+04  0.00000000000E+00 0.  1.
    9000005    2    1    2  501    0 -0.51668309176E+02  0.10215548878E+02 -0.76924031087E+03  0.77105214346E+03  0.40963941801E+01 0.  0.
         13    1    3    3    0    0 -0.14864122879E+02  0.41211660033E+01 -0.24690291592E+03  0.24738426799E+03  0.00000000000E+00 0.  1.
          1    1    3    3  501    0 -0.36804186297E+02  0.60943828748E+01 -0.52233739495E+03  0.52366787547E+03  0.00000000000E+00 0.  1.
         -3    1    1    2    0  502  0.51668309176E+02 -0.10215548878E+02 -0.22683666812E+03  0.23287087756E+03  0.00000000000E+00 0. -1.
<mgrwt>
<rscale>  1 0.30000000E+03</rscale>
<asrwt>0</asrwt>
<pdfrwt beam="1">  1       21 0.14265561E-01 0.30000000E+03</pdfrwt>
<pdfrwt beam="2">0</pdfrwt>
<totfact> 0.45178270E+03</totfact>
</mgrwt>
</event>
<event>
 6    1  0.1273846E-001  0.3000000E+03  0.7818608E-02  0.1093470E+00
         21   -1    0    0  501  502  0.00000000000E+00  0.00000000000E+00  0.22005929745E+01  0.22005929745E+01  0.00000000000E+00 0. -1.
         13   -1    0    0    0    0 -0.00000000000E+00 -0.00000000000E+00 -0.10000000000E+04  0.10000000000E+04  0.00000000000E+00 0.  1.
    9000005    2    1    2  501    0  0.11745536049E+02 -0.41763087678E+02 -0.68860067583E+03  0.68997316228E+03  0.31560725708E+01 0.  0.
         13    1    3    3    0    0  0.40609621899E+01 -0.18675093760E+02 -0.31994882979E+03  0.32051911679E+03  0.00000000000E+00 0.  1.
          1    1    3    3  501    0  0.76845738594E+01 -0.23087993918E+02 -0.36865184604E+03  0.36945404549E+03  0.00000000000E+00 0.  1.
         -1    1    1    2    0  502 -0.11745536049E+02  0.41763087678E+02 -0.30919873119E+03  0.31222743070E+03  0.00000000000E+00 0. -1.
<mgrwt>
<rscale>  1 0.30000000E+03</rscale>
<asrwt>0</asrwt>
<pdfrwt beam="1">  1       21 0.80021731E-02 0.30000000E+03</pdfrwt>
<pdfrwt beam="2">0</pdfrwt>
<totfact> 0.12767776E+04</totfact>
</mgrwt>
</event>
<event>
 6    1  0.1273846E-001  0.3000000E+03  0.7818608E-02  0.1093470E+00
         21   -1    0    0  501  502  0.00000000000E+00  0.00000000000E+00  0.19163178987E+01  0.19163178987E+01  0.00000000000E+00 0. -1.
         13   -1    0    0    0    0 -0.00000000000E+00 -0.00000000000E+00 -0.10000000000E+04  0.10000000000E+04  0.00000000000E+00 0.  1.
    9000005    2    1    2  501    0 -0.25524669747E+02 -0.18358385377E+02 -0.84724201829E+03  0.84783274765E+03  0.35764999279E+01 0.  0.
         13    1    3    3    0    0 -0.97668498118E+01 -0.56094820577E+01 -0.33755164742E+03  0.33773950364E+03  0.00000000000E+00 0.  1.
          3    1    3    3  501    0 -0.15757819935E+02 -0.12748903319E+02 -0.50969037088E+03  0.51009324401E+03  0.00000000000E+00 0.  1.
         -1    1    1    2    0  502  0.25524669747E+02  0.18358385377E+02 -0.15084166381E+03  0.15408357025E+03  0.00000000000E+00 0. -1.
<mgrwt>
<rscale>  1 0.30000000E+03</rscale>
<asrwt>0</asrwt>
<pdfrwt beam="1">  1       21 0.69684434E-02 0.30000000E+03</pdfrwt>
<pdfrwt beam="2">0</pdfrwt>
<totfact> 0.16262640E+04</totfact>
</mgrwt>
</event>
<event>
 6    1  0.1273846E-001  0.3000000E+03  0.7818608E-02  0.1093470E+00
         21   -1    0    0  501  502  0.00000000000E+00  0.00000000000E+00  0.12835931710E+01  0.12835931710E+01  0.00000000000E+00 0. -1.
         13   -1    0    0    0    0 -0.00000000000E+00 -0.00000000000E+00 -0.10000000000E+04  0.10000000000E+04  0.00000000000E+00 0.  1.
    9000005    2    1    2  501    0 -0.16351454747E+02  0.27437954231E+02 -0.72515546243E+03  0.72586427340E+03  0.28787664068E+01 0.  0.
         13    1    3    3    0    0 -0.15638734782E+02  0.25501593843E+02 -0.66294171777E+03  0.66361632174E+03  0.00000000000E+00 0.  1.
          3    1    3    3  501    0 -0.71271996553E+00  0.19363603887E+01 -0.62213744662E+02  0.62247951663E+02  0.00000000000E+00 0.  1.
         -1    1    1    2    0  502  0.16351454747E+02 -0.27437954231E+02 -0.27356094439E+03  0.27541931977E+03  0.00000000000E+00 0. -1.
<mgrwt>
<rscale>  1 0.30000000E+03</rscale>
<asrwt>0</asrwt>
<pdfrwt beam="1">  1       21 0.46676214E-02 0.30000000E+03</pdfrwt>
<pdfrwt beam="2">0</pdfrwt>
<totfact> 0.32382668E+04</totfact>
</mgrwt>
</event>
<event>
 6    1  0.1273846E-001  0.3000000E+03  0.7818608E-02  0.1093470E+00
         21   -1    0    0  501  502  0.00000000000E+00  0.00000000000E+00  0.18291754394E+01  0.18291754394E+01  0.00000000000E+00 0. -1.
         13   -1    0    0    0    0 -0.00000000000E+00 -0.00000000000E+00 -0.10000000000E+04  0.10000000000E+04  0.00000000000E+00 0.  1.
    9000005    2    1    2  501    0 -0.20633604748E+02 -0.29263594846E+02 -0.77182795134E+03  0.77267158799E+03  0.45708629303E+01 0.  0.
         13    1    3    3    0    0 -0.76572537629E+01 -0.90867602684E+01 -0.21673466284E+03  0.21706016867E+03  0.00000000000E+00 0.  1.
          1    1    3    3  501    0 -0.12976350985E+02 -0.20176834578E+02 -0.55509328850E+03  0.55561141932E+03  0.00000000000E+00 0.  1.
         -3    1    1    2    0  502  0.20633604748E+02  0.29263594846E+02 -0.22634287322E+03  0.22915758745E+03  0.00000000000E+00 0. -1.
<mgrwt>
<rscale>  1 0.30000000E+03</rscale>
<asrwt>0</asrwt>
<pdfrwt beam="1">  1       21 0.66515611E-02 0.30000000E+03</pdfrwt>
<pdfrwt beam="2">0</pdfrwt>
<totfact> 0.17631665E+04</totfact>
</mgrwt>
</event>
<event>
 6    1  0.1273846E-001  0.3000000E+03  0.7818608E-02  0.1093470E+00
         21   -1    0    0  501  502  0.00000000000E+00  0.00000000000E+00  0.31830487421E+01  0.31830487421E+01  0.00000000000E+00 0. -1.
         13   -1    0    0    0    0 -0.00000000000E+00 -0.00000000000E+00 -0.10000000000E+04  0.10000000000E+04  0.00000000000E+00 0.  1.
    9000005    2    1    2  501    0 -0.38530833178E+02 -0.28072851516E+02 -0.76628932975E+03  0.76777766567E+03  0.32398961744E+01 0.  0.
         13    1    3    3    0    0 -0.17254739153E+02 -0.13078572295E+02 -0.32304910468E+03  0.32377383945E+03  0.00000000000E+00 0.  1.
          3    1    3    3  501    0 -0.21276094026E+02 -0.14994279221E+02 -0.44324022507E+03  0.44400382623E+03  0.00000000000E+00 0.  1.
         -3    1    1    2    0  502  0.38530833178E+02  0.28072851516E+02 -0.23052762151E+03  0.23540538307E+03  0.00000000000E+00 0. -1.
<mgrwt>
<rscale>  1 0.30000000E+03</rscale>
<asrwt>0</asrwt>
<pdfrwt beam="1">  1       21 0.11574747E-01 0.30000000E+03</pdfrwt>
<pdfrwt beam="2">0</pdfrwt>
<totfact> 0.66156416E+03</totfact>
</mgrwt>
</event>
<event>
 6    1  0.1273846E-001  0.3000000E+03  0.7818608E-02  0.1093470E+00
         21   -1    0    0  501  502  0.00000000000E+00  0.00000000000E+00  0.17382800829E+01  0.17382800829E+01  0.00000000000E+00 0. -1.
         13   -1    0    0    0    0 -0.00000000000E+00 -0.00000000000E+00 -0.10000000000E+04  0.10000000000E+04  0.00000000000E+00 0.  1.
    9000005    2    1    2  501    0 -0.25044172967E+02  0.32281035284E+02 -0.40493179107E+03  0.40700331364E+03  0.35589408543E+01 0.  0.
         13    1    3    3    0    0 -0.22305150529E+02  0.28407236991E+02 -0.36796423067E+03  0.36973255997E+03  0.00000000000E+00 0.  1.
          1    1    3    3  501    0 -0.27390224382E+01  0.38737982933E+01 -0.36967560399E+02  0.37270753668E+02  0.00000000000E+00 0.  1.
         -1    1    1    2    0  502  0.25044172967E+02 -0.32281035284E+02 -0.59332992885E+03  0.59473496644E+03  0.00000000000E+00 0. -1.
<mgrwt>
<rscale>  1 0.30000000E+03</rscale>
<asrwt>0</asrwt>
<pdfrwt beam="1">  1       21 0.63210318E-02 0.30000000E+03</pdfrwt>
<pdfrwt beam="2">0</pdfrwt>
<totfact> 0.19258144E+04</totfact>
</mgrwt>
</event>
<event>
 6    1  0.1273846E-001  0.3000000E+03  0.7818608E-02  0.1093470E+00
         21   -1    0    0  501  502  0.00000000000E+00  0.00000000000E+00  0.17369232290E+01  0.17369232290E+01  0.00000000000E+00 0. -1.
         13   -1    0    0    0    0 -0.00000000000E+00 -0.00000000000E+00 -0.10000000000E+04  0.10000000000E+04  0.00000000000E+00 0.  1.
    9000005    2    1    2  501    0 -0.32249057333E+02 -0.25093413960E+02 -0.59423050726E+03  0.59564333999E+03  0.33781047388E+01 0.  0.
         13    1    3    3    0    0 -0.13554972413E+02 -0.12587550264E+02 -0.26117561374E+03  0.26182987781E+03  0.00000000000E+00 0.  1.
          3    1    3    3  501    0 -0.18694084920E+02 -0.12505863697E+02 -0.33305489352E+03  0.33381346219E+03  0.00000000000E+00 0.  1.
         -3    1    1    2    0  502  0.32249057333E+02  0.25093413960E+02 -0.40403256951E+03  0.40609358324E+03  0.00000000000E+00 0. -1.
<mgrwt>
<rscale>  1 0.30000000E+03</rscale>
<asrwt>0</asrwt>
<pdfrwt beam="1">  1       21 0.63160978E-02 0.30000000E+03</pdfrwt>
<pdfrwt beam="2">0</pdfrwt>
<totfact> 0.19284158E+04</totfact>
</mgrwt>
</event>
<event>
 6    1  0.1273846E-001  0.3000000E+03  0.7818608E-02  0.1093470E+00
         21   -1    0    0  501  502  0.00000000000E+00  0.00000000000E+00  0.12715438240E+01  0.12715438240E+01  0.00000000000E+00 0. -1.
         13   -1    0    0    0    0 -0.00000000000E+00 -0.00000000000E+00 -0.10000000000E+04  0.10000000000E+04  0.00000000000E+00 0.  1.
    9000005    2    1    2  501    0 -0.24415814624E+02  0.21883158446E+02 -0.69460485800E+03  0.69538567034E+03  0.32120296746E+01 0.  0.
         13    1    3    3    0    0 -0.10756083208E+02  0.11545165052E+02 -0.31723322023E+03  0.31762540859E+03  0.00000000000E+00 0.  1.
          1    1    3    3  501    0 -0.13659731416E+02  0.10337993394E+02 -0.37737163777E+03  0.37776026176E+03  0.00000000000E+00 0.  1.
         -3    1    1    2    0  502  0.24415814624E+02 -0.21883158446E+02 -0.30412359818E+03  0.30588587348E+03  0.00000000000E+00 0. -1.
<mgrwt>
<rscale>  1 0.30000000E+03</rscale>
<asrwt>0</asrwt>
<pdfrwt beam="1">  1       21 0.46238055E-02 0.30000000E+03</pdfrwt>
<pdfrwt beam="2">0</pdfrwt>
<totfact> 0.32905917E+04</totfact>
</mgrwt>
</event>
<event>
 6    1  0.1273846E-001  0.3000000E+03  0.7818608E-02  0.1093470E+00
         21   -1    0    0  501  502  0.00000000000E+00  0.00000000000E+00  0.18109701633E+01  0.18109701633E+01  0.00000000000E+00 0. -1.
         13   -1    0    0    0    0 -0.00000000000E+00 -0.00000000000E+00 -0.10000000000E+04  0.10000000000E+04  0.00000000000E+00 0.  1.
    9000005    2    1    2  501    0 -0.29870988148E+02 -0.10876986676E+02 -0.83173141530E+03  0.83234497885E+03  0.32298390275E+01 0.  0.
         13    1    3    3    0    0 -0.10617751385E+02 -0.54958782526E+01 -0.31940833022E+03  0.31963201144E+03  0.00000000000E+00 0.  1.
          1    1    3    3  501    0 -0.19253236763E+02 -0.53811084230E+01 -0.51232308508E+03  0.51271296741E+03  0.00000000000E+00 0.  1.
         -3    1    1    2    0  502  0.29870988148E+02  0.10876986676E+02 -0.16645761454E+03  0.16946599131E+03  0.00000000000E+00 0. -1.
<mgrwt>
<rscale>  1 0.30000000E+03</rscale>
<asrwt>0</asrwt>
<pdfrwt beam="1">  1       21 0.65853599E-02 0.30000000E+03</pdfrwt>
<pdfrwt beam="2">0</pdfrwt>
<totfact> 0.17940021E+04</totfact>
</mgrwt>
</event>
<event>
 6    1  0.1273846E-001  0.3000000E+03  0.7818608E-02  0.1093470E+00
         21   -1    0    0  501  502  0.00000000000E+00  0.00000000000E+00  0.55275681559E+01  0.55275681559E+01  0.00000000000E+00 0. -1.
         13   -1    0    0    0    0 -0.00000000000E+00 -0.00000000000E+00 -0.10000000000E+04  0.10000000000E+04  0.00000000000E+00 0.  1.
    9000005    2    1    2  501    0  0.52735968322E+02 -0.30439135759E+02 -0.78552409493E+03  0.78788788694E+03  0.34051916541E+01 0.  0.
         13    1    3    3    0    0  0.46803676728E+01 -0.21614616760E+01 -0.77926199733E+02  0.78096545141E+02  0.00000000000E+00 0.  1.
          1    1    3    3  501    0  0.48055600650E+02 -0.28277674083E+02 -0.70759789520E+03  0.70979134180E+03  0.00000000000E+00 0.  1.
         -3    1    1    2    0  502 -0.52735968322E+02  0.30439135759E+02 -0.20894833691E+03  0.21763968122E+03  0.00000000000E+00 0. -1.
<mgrwt>
<rscale>  1 0.30000000E+03</rscale>
<asrwt>0</asrwt>
<pdfrwt beam="1">  1       21 0.20100290E-01 0.30000000E+03</pdfrwt>
<pdfrwt beam="2">0</pdfrwt>
<totfact> 0.23764143E+03</totfact>
</mgrwt>
</event>
<event>
 6    1  0.1273846E-001  0.3000000E+03  0.7818608E-02  0.1093470E+00
         21   -1    0    0  501  502  0.00000000000E+00  0.00000000000E+00  0.16851183539E+01  0.16851183539E+01  0.00000000000E+00 0. -1.
         13   -1    0    0    0    0 -0.00000000000E+00 -0.00000000000E+00 -0.10000000000E+04  0.10000000000E+04  0.00000000000E+00 0.  1.
    9000005    2    1    2  501    0 -0.46656075185E+00  0.38625967499E+02 -0.66710653153E+03  0.66823174196E+03  0.32176861241E+01 0.  0.
         13    1    3    3    0    0  0.12915795575E+01  0.22207611768E+02 -0.38829410819E+03  0.38893079160E+03  0.00000000000E+00 0.  1.
          3    1    3    3  501    0 -0.17581403093E+01  0.16418355731E+02 -0.27881242334E+03  0.27930095036E+03  0.00000000000E+00 0.  1.
         -3    1    1    2    0  502  0.46656075185E+00 -0.38625967499E+02 -0.33120835011E+03  0.33345337640E+03  0.00000000000E+00 0. -1.
<mgrwt>
<rscale>  1 0.30000000E+03</rscale>
<asrwt>0</asrwt>
<pdfrwt beam="1">  1       21 0.61277160E-02 0.30000000E+03</pdfrwt>
<pdfrwt beam="2">0</pdfrwt>
<totfact> 0.20319644E+04</totfact>
</mgrwt>
</event>
<event>
 6    1  0.1273846E-001  0.3000000E+03  0.7818608E-02  0.1093470E+00
         21   -1    0    0  501  502  0.00000000000E+00  0.00000000000E+00  0.97507212074E+00  0.97507212074E+00  0.00000000000E+00 0. -1.
         13   -1    0    0    0    0 -0.00000000000E+00 -0.00000000000E+00 -0.10000000000E+04  0.10000000000E+04  0.00000000000E+00 0.  1.
    9000005    2    1    2  501    0  0.29986626352E+02 -0.35383431258E+01 -0.62348650255E+03  0.62422472171E+03  0.30605074950E+01 0.  0.
         13    1    3    3    0    0  0.11228370406E+02 -0.26844783534E+00 -0.21030321192E+03  0.21060291857E+03  0.00000000000E+00 0.  1.
          1    1    3    3  501    0  0.18758255946E+02 -0.32698952904E+01 -0.41318329063E+03  0.41362180314E+03  0.00000000000E+00 0.  1.
         -3    1    1    2    0  502 -0.29986626352E+02  0.35383431258E+01 -0.37553842533E+03  0.37675035041E+03  0.00000000000E+00 0. -1.
<mgrwt>
<rscale>  1 0.30000000E+03</rscale>
<asrwt>0</asrwt>
<pdfrwt beam="1">  1       21 0.35457243E-02 0.30000000E+03</pdfrwt>
<pdfrwt beam="2">0</pdfrwt>
<totfact> 0.51485048E+04</totfact>
</mgrwt>
</event>
<event>
 6    1  0.1273846E-001  0.3000000E+03  0.7818608E-02  0.1093470E+00
         21   -1    0    0  501  502  0.00000000000E+00  0.00000000000E+00  0.16221011925E+01  0.16221011925E+01  0.00000000000E+00 0. -1.
         13   -1    0    0    0    0 -0.00000000000E+00 -0.00000000000E+00 -0.10000000000E+04  0.10000000000E+04  0.00000000000E+00 0.  1.
    9000005    2    1    2  501    0 -0.39305976801E+02 -0.70074786156E+01 -0.50018243010E+03  0.50182935454E+03  0.74948732699E+01 0.  0.
         13    1    3    3    0    0 -0.14565350454E+02 -0.56262104674E+01 -0.21994857680E+03  0.22050210909E+03  0.00000000000E+00 0.  1.
          3    1    3    3  501    0 -0.24740626347E+02 -0.13812681482E+01 -0.28023385330E+03  0.28132724545E+03  0.00000000000E+00 0.  1.
         -1    1    1    2    0  502  0.39305976801E+02  0.70074786156E+01 -0.49819546871E+03  0.49979274665E+03  0.00000000000E+00 0. -1.
<mgrwt>
<rscale>  1 0.30000000E+03</rscale>
<asrwt>0</asrwt>
<pdfrwt beam="1">  1       21 0.58985622E-02 0.30000000E+03</pdfrwt>
<pdfrwt beam="2">0</pdfrwt>
<totfact> 0.21700303E+04</totfact>
</mgrwt>
</event>
<event>
 6    1  0.1273846E-001  0.3000000E+03  0.7818608E-02  0.1093470E+00
         21   -1    0    0  501  502  0.00000000000E+00  0.00000000000E+00  0.13321317078E+01  0.13321317078E+01  0.00000000000E+00 0. -1.
         13   -1    0    0    0    0 -0.00000000000E+00 -0.00000000000E+00 -0.10000000000E+04  0.10000000000E+04  0.00000000000E+00 0.  1.
    9000005    2    1    2  501    0  0.21285938603E+02  0.28620385945E+02 -0.40095519767E+03  0.40255616835E+03  0.37656956036E+01 0.  0.
         13    1    3    3    0    0  0.18850835146E+02  0.23045111576E+02 -0.33633877515E+03  0.33765396906E+03  0.00000000000E+00 0.  1.
          3    1    3    3  501    0  0.24351034577E+01  0.55752743685E+01 -0.64616422522E+02  0.64902199290E+02  0.00000000000E+00 0.  1.
         -3    1    1    2    0  502 -0.21285938603E+02 -0.28620385945E+02 -0.59771267062E+03  0.59877596336E+03  0.00000000000E+00 0. -1.
<mgrwt>
<rscale>  1 0.30000000E+03</rscale>
<asrwt>0</asrwt>
<pdfrwt beam="1">  1       21 0.48441255E-02 0.30000000E+03</pdfrwt>
<pdfrwt beam="2">0</pdfrwt>
<totfact> 0.30401364E+04</totfact>
</mgrwt>
</event>
<event>
 6    1  0.1273846E-001  0.3000000E+03  0.7818608E-02  0.1093470E+00
         21   -1    0    0  501  502  0.00000000000E+00  0.00000000000E+00  0.26671798008E+01  0.26671798008E+01  0.00000000000E+00 0. -1.
         13   -1    0    0    0    0 -0.00000000000E+00 -0.00000000000E+00 -0.10000000000E+04  0.10000000000E+04  0.00000000000E+00 0.  1.
    9000005    2    1    2  501    0  0.53149661797E+01 -0.41860487010E+02 -0.78736113393E+03  0.78849748476E+03  0.31904568188E+01 0.  0.
         13    1    3    3    0    0  0.15267499106E-02 -0.11806331258E+00 -0.57996652682E+00  0.59186353915E+00  0.00000000000E+00 0.  1.
          3    1    3    3  501    0  0.53134394297E+01 -0.41742423697E+02 -0.78678116740E+03  0.78790562122E+03  0.00000000000E+00 0.  1.
         -1    1    1    2    0  502 -0.53149661797E+01  0.41860487010E+02 -0.20997168627E+03  0.21416969504E+03  0.00000000000E+00 0. -1.
<mgrwt>
<rscale>  1 0.30000000E+03</rscale>
<asrwt>0</asrwt>
<pdfrwt beam="1">  1       21 0.96988561E-02 0.30000000E+03</pdfrwt>
<pdfrwt beam="2">0</pdfrwt>
<totfact> 0.90858893E+03</totfact>
</mgrwt>
</event>
<event>
 6    1  0.1273846E-001  0.3000000E+03  0.7818608E-02  0.1093470E+00
         21   -1    0    0  501  502  0.00000000000E+00  0.00000000000E+00  0.29336619779E+01  0.29336619779E+01  0.00000000000E+00 0. -1.
         13   -1    0    0    0    0 -0.00000000000E+00 -0.00000000000E+00 -0.10000000000E+04  0.10000000000E+04  0.00000000000E+00 0.  1.
    9000005    2    1    2  501    0  0.17116048039E+02 -0.36387571934E+02 -0.83418099615E+03  0.83515807052E+03  0.37488568570E+01 0.  0.
         13    1    3    3    0    0  0.10442729685E+02 -0.26122124921E+02 -0.57238307584E+03  0.57307399306E+03  0.00000000000E+00 0.  1.
          1    1    3    3  501    0  0.66733183545E+01 -0.10265447013E+02 -0.26179792031E+03  0.26208407746E+03  0.00000000000E+00 0.  1.
         -1    1    1    2    0  502 -0.17116048039E+02  0.36387571934E+02 -0.16288534188E+03  0.16777559146E+03  0.00000000000E+00 0. -1.
<mgrwt>
<rscale>  1 0.30000000E+03</rscale>
<asrwt>0</asrwt>
<pdfrwt beam="1">  1       21 0.10667884E-01 0.30000000E+03</pdfrwt>
<pdfrwt beam="2">0</pdfrwt>
<totfact> 0.76627250E+03</totfact>
</mgrwt>
</event>
<event>
 6    1  0.1273846E-001  0.3000000E+03  0.7818608E-02  0.1093470E+00
         21   -1    0    0  501  502  0.00000000000E+00  0.00000000000E+00  0.19461344641E+01  0.19461344641E+01  0.00000000000E+00 0. -1.
         13   -1    0    0    0    0 -0.00000000000E+00 -0.00000000000E+00 -0.10000000000E+04  0.10000000000E+04  0.00000000000E+00 0.  1.
    9000005    2    1    2  501    0  0.40129283363E+02  0.17981117807E+02 -0.46965707405E+03  0.47172273887E+03  0.33007851571E+01 0.  0.
         13    1    3    3    0    0  0.23435394440E+02  0.12206156692E+02 -0.27674941864E+03  0.27800800113E+03  0.00000000000E+00 0.  1.
          3    1    3    3  501    0  0.16693888923E+02  0.57749611146E+01 -0.19290765541E+03  0.19371473774E+03  0.00000000000E+00 0.  1.
         -3    1    1    2    0  502 -0.40129283363E+02 -0.17981117807E+02 -0.52839679149E+03  0.53022339559E+03  0.00000000000E+00 0. -1.
<mgrwt>
<rscale>  1 0.30000000E+03</rscale>
<asrwt>0</asrwt>
<pdfrwt beam="1">  1       21 0.70768675E-02 0.30000000E+03</pdfrwt>
<pdfrwt beam="2">0</pdfrwt>
<totfact> 0.15831372E+04</totfact>
</mgrwt>
</event>
<event>
 6    1  0.1273846E-001  0.3000000E+03  0.7818608E-02  0.1093470E+00
         21   -1    0    0  501  502  0.00000000000E+00  0.00000000000E+00  0.17683969238E+01  0.17683969238E+01  0.00000000000E+00 0. -1.
         13   -1    0    0    0    0 -0.00000000000E+00 -0.00000000000E+00 -0.10000000000E+04  0.10000000000E+04  0.00000000000E+00 0.  1.
    9000005    2    1    2  501    0 -0.71462273451E+01  0.31781881868E+02 -0.81542274593E+03  0.81607985439E+03  0.33041742258E+01 0.  0.
         13    1    3    3    0    0 -0.72334654113E+01  0.28866881129E+02 -0.75620491463E+03  0.75679025678E+03  0.00000000000E+00 0.  1.
          1    1    3    3  501    0  0.87238066181E-01  0.29150007387E+01 -0.59217831305E+02  0.59289597605E+02  0.00000000000E+00 0.  1.
         -1    1    1    2    0  502  0.71462273451E+01 -0.31781881868E+02 -0.18280885714E+03  0.18568854254E+03  0.00000000000E+00 0. -1.
<mgrwt>
<rscale>  1 0.30000000E+03</rscale>
<asrwt>0</asrwt>
<pdfrwt beam="1">  1       21 0.64305478E-02 0.30000000E+03</pdfrwt>
<pdfrwt beam="2">0</pdfrwt>
<totfact> 0.18694430E+04</totfact>
</mgrwt>
</event>
<event>
 6    1  0.1273846E-001  0.3000000E+03  0.7818608E-02  0.1093470E+00
         21   -1    0    0  501  502  0.00000000000E+00  0.00000000000E+00  0.69362106986E+01  0.69362106986E+01  0.00000000000E+00 0. -1.
         13   -1    0    0    0    0 -0.00000000000E+00 -0.00000000000E+00 -0.10000000000E+04  0.10000000000E+04  0.00000000000E+00 0.  1.
    9000005    2    1    2  501    0  0.15917990959E+02  0.73279517897E+02 -0.71522099071E+03  0.71915175853E+03  0.38621326881E+01 0.  0.
         13    1    3    3    0    0  0.71030994620E+00  0.30019447378E+01 -0.22908217599E+02  0.23114987476E+02  0.00000000000E+00 0.  1.
          1    1    3    3  501    0  0.15207681013E+02  0.70277573160E+02 -0.69231277311E+03  0.69603677106E+03  0.00000000000E+00 0.  1.
         -1    1    1    2    0  502 -0.15917990959E+02 -0.73279517897E+02 -0.27784279859E+03  0.28778445217E+03  0.00000000000E+00 0. -1.
<mgrwt>
<rscale>  1 0.30000000E+03</rscale>
<asrwt>0</asrwt>
<pdfrwt beam="1">  1       21 0.25222638E-01 0.30000000E+03</pdfrwt>
<pdfrwt beam="2">0</pdfrwt>
<totfact> 0.15327484E+03</totfact>
</mgrwt>
</event>
<event>
 6    1  0.1273846E-001  0.3000000E+03  0.7818608E-02  0.1093470E+00
         21   -1    0    0  501  502  0.00000000000E+00  0.00000000000E+00  0.30338639078E+01  0.30338639078E+01  0.00000000000E+00 0. -1.
         13   -1    0    0    0    0 -0.00000000000E+00 -0.00000000000E+00 -0.10000000000E+04  0.10000000000E+04  0.00000000000E+00 0.  1.
    9000005    2    1    2  501    0  0.60647861560E+01 -0.54648829744E+02 -0.47795719909E+03  0.48112050624E+03  0.32528663533E+01 0.  0.
         13    1    3    3    0    0  0.86142979092E+00 -0.24150515316E+01 -0.19445976005E+02  0.19614293716E+02  0.00000000000E+00 0.  1.
          1    1    3    3  501    0  0.52033563651E+01 -0.52233778213E+02 -0.45851122309E+03  0.46150621253E+03  0.00000000000E+00 0.  1.
         -1    1    1    2    0  502 -0.60647861560E+01  0.54648829744E+02 -0.51900893700E+03  0.52191335767E+03  0.00000000000E+00 0. -1.
<mgrwt>
<rscale>  1 0.30000000E+03</rscale>
<asrwt>0</asrwt>
<pdfrwt beam="1">  1       21 0.11032256E-01 0.30000000E+03</pdfrwt>
<pdfrwt beam="2">0</pdfrwt>
<totfact> 0.72139152E+03</totfact>
</mgrwt>
</event>
<event>
 6    1  0.1273846E-001  0.3000000E+03  0.7818608E-02  0.1093470E+00
         21   -1    0    0  501  502  0.00000000000E+00  0.00000000000E+00  0.10612879912E+01  0.10612879912E+01  0.00000000000E+00 0. -1.
         13   -1    0    0    0    0 -0.00000000000E+00 -0.00000000000E+00 -0.10000000000E+04  0.10000000000E+04  0.00000000000E+00 0.  1.
    9000005    2    1    2  501    0 -0.28229514265E+02  0.14646437634E+02 -0.59299789536E+03  0.59387659988E+03  0.56114500940E+01 0.  0.
         13    1    3    3    0    0 -0.14730790430E+02  0.88919015836E+01 -0.36667391405E+03  0.36707740511E+03  0.00000000000E+00 0.  1.
          1    1    3    3  501    0 -0.13498723835E+02  0.57545360507E+01 -0.22632398132E+03  0.22679919477E+03  0.00000000000E+00 0.  1.
         -1    1    1    2    0  502  0.28229514265E+02 -0.14646437634E+02 -0.40594081664E+03  0.40718468811E+03  0.00000000000E+00 0. -1.
<mgrwt>
<rscale>  1 0.30000000E+03</rscale>
<asrwt>0</asrwt>
<pdfrwt beam="1">  1       21 0.38592372E-02 0.30000000E+03</pdfrwt>
<pdfrwt beam="2">0</pdfrwt>
<totfact> 0.44659816E+04</totfact>
</mgrwt>
</event>
<event>
 6    1  0.1273846E-001  0.3000000E+03  0.7818608E-02  0.1093470E+00
         21   -1    0    0  501  502  0.00000000000E+00  0.00000000000E+00  0.13206004304E+01  0.13206004304E+01  0.00000000000E+00 0. -1.
         13   -1    0    0    0    0 -0.00000000000E+00 -0.00000000000E+00 -0.10000000000E+04  0.10000000000E+04  0.00000000000E+00 0.  1.
    9000005    2    1    2  501    0 -0.39882730161E+01 -0.35159955804E+02 -0.38864873358E+03  0.39026451277E+03  0.25343646127E+01 0.  0.
         13    1    3    3    0    0 -0.25604742217E+00 -0.13083877382E+02 -0.14253409982E+03  0.14313358453E+03  0.00000000000E+00 0.  1.
          1    1    3    3  501    0 -0.37322255939E+01 -0.22076078422E+02 -0.24611463375E+03  0.24713092824E+03  0.00000000000E+00 0.  1.
         -3    1    1    2    0  502  0.39882730161E+01  0.35159955804E+02 -0.61003066599E+03  0.61105608766E+03  0.00000000000E+00 0. -1.
<mgrwt>
<rscale>  1 0.30000000E+03</rscale>
<asrwt>0</asrwt>
<pdfrwt beam="1">  1       21 0.48021935E-02 0.30000000E+03</pdfrwt>
<pdfrwt beam="2">0</pdfrwt>
<totfact> 0.30854545E+04</totfact>
</mgrwt>
</event>
<event>
 6    1  0.1273846E-001  0.3000000E+03  0.7818608E-02  0.1093470E+00
         21   -1    0    0  501  502  0.00000000000E+00  0.00000000000E+00  0.32081657594E+01  0.32081657594E+01  0.00000000000E+00 0. -1.
         13   -1    0    0    0    0 -0.00000000000E+00 -0.00000000000E+00 -0.10000000000E+04  0.10000000000E+04  0.00000000000E+00 0.  1.
    9000005    2    1    2  501    0 -0.17512751568E+02  0.35751412925E+02 -0.85500470477E+03  0.85593817534E+03  0.35006910029E+01 0.  0.
         13    1    3    3    0    0 -0.46631043163E+01  0.13043259282E+02 -0.30969170942E+03  0.31000133232E+03  0.00000000000E+00 0.  1.
          1    1    3    3  501    0 -0.12849647252E+02  0.22708153643E+02 -0.54531299535E+03  0.54593684303E+03  0.00000000000E+00 0.  1.
         -3    1    1    2    0  502  0.17512751568E+02 -0.35751412925E+02 -0.14178712947E+03  0.14726999041E+03  0.00000000000E+00 0. -1.
<mgrwt>
<rscale>  1 0.30000000E+03</rscale>
<asrwt>0</asrwt>
<pdfrwt beam="1">  1       21 0.11666082E-01 0.30000000E+03</pdfrwt>
<pdfrwt beam="2">0</pdfrwt>
<totfact> 0.65222678E+03</totfact>
</mgrwt>
</event>
<event>
 6    1  0.1273846E-001  0.3000000E+03  0.7818608E-02  0.1093470E+00
         21   -1    0    0  501  502  0.00000000000E+00  0.00000000000E+00  0.40393523579E+01  0.40393523579E+01  0.00000000000E+00 0. -1.
         13   -1    0    0    0    0 -0.00000000000E+00 -0.00000000000E+00 -0.10000000000E+04  0.10000000000E+04  0.00000000000E+00 0.  1.
    9000005    2    1    2  501    0  0.47343365703E+02  0.37413007334E+02 -0.34150707359E+03  0.34680985821E+03  0.29780938481E+01 0.  0.
         13    1    3    3    0    0  0.46653719250E+02  0.37163683686E+02 -0.33847858047E+03  0.34369384391E+03  0.00000000000E+00 0.  1.
          3    1    3    3  501    0  0.68964645333E+00  0.24932364810E+00 -0.30284931198E+01  0.31160142953E+01  0.00000000000E+00 0.  1.
         -1    1    1    2    0  502 -0.47343365703E+02 -0.37413007334E+02 -0.65445357405E+03  0.65722949415E+03  0.00000000000E+00 0. -1.
<mgrwt>
<rscale>  1 0.30000000E+03</rscale>
<asrwt>0</asrwt>
<pdfrwt beam="1">  1       21 0.14688585E-01 0.30000000E+03</pdfrwt>
<pdfrwt beam="2">0</pdfrwt>
<totfact> 0.42808842E+03</totfact>
</mgrwt>
</event>
<event>
 6    1  0.1273846E-001  0.3000000E+03  0.7818608E-02  0.1093470E+00
         21   -1    0    0  501  502  0.00000000000E+00  0.00000000000E+00  0.12789400982E+01  0.12789400982E+01  0.00000000000E+00 0. -1.
         13   -1    0    0    0    0 -0.00000000000E+00 -0.00000000000E+00 -0.10000000000E+04  0.10000000000E+04  0.00000000000E+00 0.  1.
    9000005    2    1    2  501    0  0.17228194042E+02 -0.24610096644E+02 -0.77025142698E+03  0.77084274352E+03  0.29676494595E+01 0.  0.
         13    1    3    3    0    0  0.16407151264E+02 -0.22021489841E+02 -0.69504269538E+03  0.69558499770E+03  0.00000000000E+00 0.  1.
          1    1    3    3  501    0  0.82104277790E+00 -0.25886068028E+01 -0.75208731604E+02  0.75257745820E+02  0.00000000000E+00 0.  1.
         -3    1    1    2    0  502 -0.17228194042E+02  0.24610096644E+02 -0.22846963292E+03  0.23043619658E+03  0.00000000000E+00 0. -1.
<mgrwt>
<rscale>  1 0.30000000E+03</rscale>
<asrwt>0</asrwt>
<pdfrwt beam="1">  1       21 0.46507011E-02 0.30000000E+03</pdfrwt>
<pdfrwt beam="2">0</pdfrwt>
<totfact> 0.32583173E+04</totfact>
</mgrwt>
</event>
<event>
 6    1  0.1273846E-001  0.3000000E+03  0.7818608E-02  0.1093470E+00
         21   -1    0    0  501  502  0.00000000000E+00  0.00000000000E+00  0.20815381258E+01  0.20815381258E+01  0.00000000000E+00 0. -1.
         13   -1    0    0    0    0 -0.00000000000E+00 -0.00000000000E+00 -0.10000000000E+04  0.10000000000E+04  0.00000000000E+00 0.  1.
    9000005    2    1    2  501    0 -0.30759297216E+02 -0.19471522329E+02 -0.80057250802E+03  0.80140592912E+03  0.31381658711E+01 0.  0.
         13    1    3    3    0    0 -0.94387735187E+01 -0.76419520082E+01 -0.25645154439E+03  0.25673894230E+03  0.00000000000E+00 0.  1.
          3    1    3    3  501    0 -0.21320523697E+02 -0.11829570320E+02 -0.54412096363E+03  0.54466698682E+03  0.00000000000E+00 0.  1.
         -1    1    1    2    0  502  0.30759297216E+02  0.19471522329E+02 -0.19734595385E+03  0.20067560901E+03  0.00000000000E+00 0. -1.
<mgrwt>
<rscale>  1 0.30000000E+03</rscale>
<asrwt>0</asrwt>
<pdfrwt beam="1">  1       21 0.75692455E-02 0.30000000E+03</pdfrwt>
<pdfrwt beam="2">0</pdfrwt>
<totfact> 0.14076085E+04</totfact>
</mgrwt>
</event>
<event>
 6    1  0.1273846E-001  0.3000000E+03  0.7818608E-02  0.1093470E+00
         21   -1    0    0  501  502  0.00000000000E+00  0.00000000000E+00  0.15881081125E+01  0.15881081125E+01  0.00000000000E+00 0. -1.
         13   -1    0    0    0    0 -0.00000000000E+00 -0.00000000000E+00 -0.10000000000E+04  0.10000000000E+04  0.00000000000E+00 0.  1.
    9000005    2    1    2  501    0  0.53405299421E+01 -0.39212045374E+02 -0.55185424066E+03  0.55328035485E+03  0.31531523485E+01 0.  0.
         13    1    3    3    0    0  0.54903561198E+01 -0.39155018758E+02 -0.54987051156E+03  0.55129015862E+03  0.00000000000E+00 0.  1.
          1    1    3    3  501    0 -0.14982617768E+00 -0.57026615670E-01 -0.19837290931E+01  0.19901962298E+01  0.00000000000E+00 0.  1.
         -1    1    1    2    0  502 -0.53405299421E+01  0.39212045374E+02 -0.44655765123E+03  0.44830775326E+03  0.00000000000E+00 0. -1.
<mgrwt>
<rscale>  1 0.30000000E+03</rscale>
<asrwt>0</asrwt>
<pdfrwt beam="1">  1       21 0.57749508E-02 0.30000000E+03</pdfrwt>
<pdfrwt beam="2">0</pdfrwt>
<totfact> 0.22506676E+04</totfact>
</mgrwt>
</event>
<event>
 6    1  0.1273846E-001  0.3000000E+03  0.7818608E-02  0.1093470E+00
         21   -1    0    0  501  502  0.00000000000E+00  0.00000000000E+00  0.63384064283E+01  0.63384064283E+01  0.00000000000E+00 0. -1.
         13   -1    0    0    0    0 -0.00000000000E+00 -0.00000000000E+00 -0.10000000000E+04  0.10000000000E+04  0.00000000000E+00 0.  1.
    9000005    2    1    2  501    0  0.43548258905E+02 -0.66351261348E+02 -0.53438826280E+03  0.54025801305E+03  0.29940787071E+01 0.  0.
         13    1    3    3    0    0  0.21508213628E+02 -0.30466246404E+02 -0.24556570944E+03  0.24838138633E+03  0.00000000000E+00 0.  1.
          3    1    3    3  501    0  0.22040045277E+02 -0.35885014944E+02 -0.28882255336E+03  0.29187662672E+03  0.00000000000E+00 0.  1.
         -3    1    1    2    0  502 -0.43548258905E+02  0.66351261348E+02 -0.45927333077E+03  0.46608039338E+03  0.00000000000E+00 0. -1.
<mgrwt>
<rscale>  1 0.30000000E+03</rscale>
<asrwt>0</asrwt>
<pdfrwt beam="1">  1       21 0.23048799E-01 0.30000000E+03</pdfrwt>
<pdfrwt beam="2">0</pdfrwt>
<totfact> 0.18267699E+03</totfact>
</mgrwt>
</event>
<event>
 6    1  0.1273846E-001  0.3000000E+03  0.7818608E-02  0.1093470E+00
         21   -1    0    0  501  502  0.00000000000E+00  0.00000000000E+00  0.42448939745E+01  0.42448939745E+01  0.00000000000E+00 0. -1.
         13   -1    0    0    0    0 -0.00000000000E+00 -0.00000000000E+00 -0.10000000000E+04  0.10000000000E+04  0.00000000000E+00 0.  1.
    9000005    2    1    2  501    0  0.19240662196E+02  0.34347959796E+02 -0.89785135341E+03  0.89872176760E+03  0.37117802121E+01 0.  0.
         13    1    3    3    0    0  0.71194690984E+01  0.10082275835E+02 -0.30747358329E+03  0.30772121075E+03  0.00000000000E+00 0.  1.
          1    1    3    3  501    0  0.12121193097E+02  0.24265683961E+02 -0.59037777013E+03  0.59100055685E+03  0.00000000000E+00 0.  1.
         -1    1    1    2    0  502 -0.19240662196E+02 -0.34347959796E+02 -0.97903752614E+02  0.10552312637E+03  0.00000000000E+00 0. -1.
<mgrwt>
<rscale>  1 0.30000000E+03</rscale>
<asrwt>0</asrwt>
<pdfrwt beam="1">  1       21 0.15436011E-01 0.30000000E+03</pdfrwt>
<pdfrwt beam="2">0</pdfrwt>
<totfact> 0.39049651E+03</totfact>
</mgrwt>
</event>
<event>
 6    1  0.1273846E-001  0.3000000E+03  0.7818608E-02  0.1093470E+00
         21   -1    0    0  501  502  0.00000000000E+00  0.00000000000E+00  0.16157191659E+01  0.16157191659E+01  0.00000000000E+00 0. -1.
         13   -1    0    0    0    0 -0.00000000000E+00 -0.00000000000E+00 -0.10000000000E+04  0.10000000000E+04  0.00000000000E+00 0.  1.
    9000005    2    1    2  501    0 -0.37516218493E+02 -0.90844341733E+01 -0.36330977380E+03  0.36536920791E+03  0.32669189728E+01 0.  0.
         13    1    3    3    0    0 -0.21629209313E+02 -0.44006649595E+01 -0.22060051675E+03  0.22170199940E+03  0.00000000000E+00 0.  1.
          3    1    3    3  501    0 -0.15887009180E+02 -0.46837692138E+01 -0.14270925705E+03  0.14366720852E+03  0.00000000000E+00 0.  1.
         -3    1    1    2    0  502  0.37516218493E+02  0.90844341733E+01 -0.63507450704E+03  0.63624651125E+03  0.00000000000E+00 0. -1.
<mgrwt>
<rscale>  1 0.30000000E+03</rscale>
<asrwt>0</asrwt>
<pdfrwt beam="1">  1       21 0.58753548E-02 0.30000000E+03</pdfrwt>
<pdfrwt beam="2">0</pdfrwt>
<totfact> 0.21848236E+04</totfact>
</mgrwt>
</event>
<event>
 6    1  0.1273846E-001  0.3000000E+03  0.7818608E-02  0.1093470E+00
         21   -1    0    0  501  502  0.00000000000E+00  0.00000000000E+00  0.18093487758E+01  0.18093487758E+01  0.00000000000E+00 0. -1.
         13   -1    0    0    0    0 -0.00000000000E+00 -0.00000000000E+00 -0.10000000000E+04  0.10000000000E+04  0.00000000000E+00 0.  1.
    9000005    2    1    2  501    0 -0.31392262295E+02  0.15831020618E+02 -0.21916039251E+03  0.22198613847E+03  0.32361520515E+01 0.  0.
         13    1    3    3    0    0 -0.19573358438E+02  0.11570270643E+02 -0.13919959713E+03  0.14104437374E+03  0.00000000000E+00 0.  1.
          3    1    3    3  501    0 -0.11818903857E+02  0.42607499748E+01 -0.79960795379E+02  0.80941764722E+02  0.00000000000E+00 0.  1.
         -3    1    1    2    0  502  0.31392262295E+02 -0.15831020618E+02 -0.77903025871E+03  0.77982321031E+03  0.00000000000E+00 0. -1.
<mgrwt>
<rscale>  1 0.30000000E+03</rscale>
<asrwt>0</asrwt>
<pdfrwt beam="1">  1       21 0.65794640E-02 0.30000000E+03</pdfrwt>
<pdfrwt beam="2">0</pdfrwt>
<totfact> 0.17967886E+04</totfact>
</mgrwt>
</event>
<event>
 6    1  0.1273846E-001  0.3000000E+03  0.7818608E-02  0.1093470E+00
         21   -1    0    0  501  502  0.00000000000E+00  0.00000000000E+00  0.22057050433E+01  0.22057050433E+01  0.00000000000E+00 0. -1.
         13   -1    0    0    0    0 -0.00000000000E+00 -0.00000000000E+00 -0.10000000000E+04  0.10000000000E+04  0.00000000000E+00 0.  1.
    9000005    2    1    2  501    0 -0.24722718338E+02 -0.17653470402E+02 -0.88087084687E+03  0.88140028078E+03  0.31856352190E+01 0.  0.
         13    1    3    3    0    0 -0.24124978359E+02 -0.16602444159E+02 -0.85456481977E+03  0.85506648100E+03  0.00000000000E+00 0.  1.
          1    1    3    3  501    0 -0.59773997936E+00 -0.10510262431E+01 -0.26306027102E+02  0.26333799785E+02  0.00000000000E+00 0.  1.
         -1    1    1    2    0  502  0.24722718338E+02  0.17653470402E+02 -0.11692344808E+03  0.12080542426E+03  0.00000000000E+00 0. -1.
<mgrwt>
<rscale>  1 0.30000000E+03</rscale>
<asrwt>0</asrwt>
<pdfrwt beam="1">  1       21 0.80207625E-02 0.30000000E+03</pdfrwt>
<pdfrwt beam="2">0</pdfrwt>
<totfact> 0.12715842E+04</totfact>
</mgrwt>
</event>
<event>
 6    1  0.1273846E-001  0.3000000E+03  0.7818608E-02  0.1093470E+00
         21   -1    0    0  501  502  0.00000000000E+00  0.00000000000E+00  0.18889466224E+01  0.18889466224E+01  0.00000000000E+00 0. -1.
         13   -1    0    0    0    0 -0.00000000000E+00 -0.00000000000E+00 -0.10000000000E+04  0.10000000000E+04  0.00000000000E+00 0.  1.
    9000005    2    1    2  501    0  0.35702883908E+02  0.12733180946E+02 -0.26101095830E+03  0.26381484466E+03  0.58925458634E+01 0.  0.
         13    1    3    3    0    0  0.29959964326E+02  0.12666557685E+02 -0.21494981135E+03  0.21739701595E+03  0.00000000000E+00 0.  1.
          3    1    3    3  501    0  0.57429195820E+01  0.66623260160E-01 -0.46061146950E+02  0.46417828712E+02  0.00000000000E+00 0.  1.
         -3    1    1    2    0  502 -0.35702883908E+02 -0.12733180946E+02 -0.73710009508E+03  0.73807410196E+03  0.00000000000E+00 0. -1.
<mgrwt>
<rscale>  1 0.30000000E+03</rscale>
<asrwt>0</asrwt>
<pdfrwt beam="1">  1       21 0.68689113E-02 0.30000000E+03</pdfrwt>
<pdfrwt beam="2">0</pdfrwt>
<totfact> 0.16674561E+04</totfact>
</mgrwt>
</event>
<event>
 6    1  0.1273846E-001  0.3000000E+03  0.7818608E-02  0.1093470E+00
         21   -1    0    0  501  502  0.00000000000E+00  0.00000000000E+00  0.10351966721E+01  0.10351966721E+01  0.00000000000E+00 0. -1.
         13   -1    0    0    0    0 -0.00000000000E+00 -0.00000000000E+00 -0.10000000000E+04  0.10000000000E+04  0.00000000000E+00 0.  1.
    9000005    2    1    2  501    0  0.29235227137E+02  0.10504053096E+02 -0.62625965015E+03  0.62703765010E+03  0.31672699011E+01 0.  0.
         13    1    3    3    0    0  0.58460228491E+01  0.32916573229E+01 -0.12198668327E+03  0.12217103538E+03  0.00000000000E+00 0.  1.
          3    1    3    3  501    0  0.23389204288E+02  0.72123957731E+01 -0.50427296688E+03  0.50486661472E+03  0.00000000000E+00 0.  1.
         -1    1    1    2    0  502 -0.29235227137E+02 -0.10504053096E+02 -0.37270515318E+03  0.37399754658E+03  0.00000000000E+00 0. -1.
<mgrwt>
<rscale>  1 0.30000000E+03</rscale>
<asrwt>0</asrwt>
<pdfrwt beam="1">  1       21 0.37643595E-02 0.30000000E+03</pdfrwt>
<pdfrwt beam="2">0</pdfrwt>
<totfact> 0.46567421E+04</totfact>
</mgrwt>
</event>
<event>
 6    1  0.1273846E-001  0.3000000E+03  0.7818608E-02  0.1093470E+00
         21   -1    0    0  501  502  0.00000000000E+00  0.00000000000E+00  0.12138120746E+01  0.12138120746E+01  0.00000000000E+00 0. -1.
         13   -1    0    0    0    0 -0.00000000000E+00 -0.00000000000E+00 -0.10000000000E+04  0.10000000000E+04  0.00000000000E+00 0.  1.
    9000005    2    1    2  501    0  0.78590249894E+01 -0.30976430067E+02 -0.34757017007E+03  0.34921411468E+03  0.11143216531E+02 0.  0.
         13    1    3    3    0    0  0.93765971885E+01 -0.20183213414E+02 -0.19784654774E+03  0.19909429708E+03  0.00000000000E+00 0.  1.
          3    1    3    3  501    0 -0.15175721992E+01 -0.10793216653E+02 -0.14972362233E+03  0.15011981760E+03  0.00000000000E+00 0.  1.
         -1    1    1    2    0  502 -0.78590249894E+01  0.30976430067E+02 -0.65121601785E+03  0.65199969739E+03  0.00000000000E+00 0. -1.
<mgrwt>
<rscale>  1 0.30000000E+03</rscale>
<asrwt>0</asrwt>
<pdfrwt beam="1">  1       21 0.44138714E-02 0.30000000E+03</pdfrwt>
<pdfrwt beam="2">0</pdfrwt>
<totfact> 0.35606024E+04</totfact>
</mgrwt>
</event>
<event>
 6    1  0.1273846E-001  0.3000000E+03  0.7818608E-02  0.1093470E+00
         21   -1    0    0  501  502  0.00000000000E+00  0.00000000000E+00  0.56313606782E+01  0.56313606782E+01  0.00000000000E+00 0. -1.
         13   -1    0    0    0    0 -0.00000000000E+00 -0.00000000000E+00 -0.10000000000E+04  0.10000000000E+04  0.00000000000E+00 0.  1.
    9000005    2    1    2  501    0 -0.79732259589E+01 -0.33376942663E+02 -0.94431398282E+03  0.94494313059E+03  0.33210342087E+01 0.  0.
         13    1    3    3    0    0 -0.25215753546E+01 -0.54695877223E+01 -0.15356890876E+03  0.15368696910E+03  0.00000000000E+00 0.  1.
          1    1    3    3  501    0 -0.54516506043E+01 -0.27907354940E+02 -0.79074507405E+03  0.79125616149E+03  0.00000000000E+00 0.  1.
         -1    1    1    2    0  502  0.79732259589E+01  0.33376942663E+02 -0.50054656506E+02  0.60688230091E+02  0.00000000000E+00 0. -1.
<mgrwt>
<rscale>  1 0.30000000E+03</rscale>
<asrwt>0</asrwt>
<pdfrwt beam="1">  1       21 0.20477718E-01 0.30000000E+03</pdfrwt>
<pdfrwt beam="2">0</pdfrwt>
<totfact> 0.22933973E+03</totfact>
</mgrwt>
</event>
<event>
 6    1  0.1273846E-001  0.3000000E+03  0.7818608E-02  0.1093470E+00
         21   -1    0    0  501  502  0.00000000000E+00  0.00000000000E+00  0.17479958220E+01  0.17479958220E+01  0.00000000000E+00 0. -1.
         13   -1    0    0    0    0 -0.00000000000E+00 -0.00000000000E+00 -0.10000000000E+04  0.10000000000E+04  0.00000000000E+00 0.  1.
    9000005    2    1    2  501    0  0.11442607993E+02 -0.32238952226E+02 -0.21314116062E+03  0.21589220753E+03  0.31634796986E+01 0.  0.
         13    1    3    3    0    0  0.99276398014E+01 -0.26058700079E+02 -0.16650975829E+03  0.16882865127E+03  0.00000000000E+00 0.  1.
          1    1    3    3  501    0  0.15149681916E+01 -0.61802521464E+01 -0.46631402325E+02  0.47063556262E+02  0.00000000000E+00 0.  1.
         -3    1    1    2    0  502 -0.11442607993E+02  0.32238952226E+02 -0.78511084356E+03  0.78585578829E+03  0.00000000000E+00 0. -1.
<mgrwt>
<rscale>  1 0.30000000E+03</rscale>
<asrwt>0</asrwt>
<pdfrwt beam="1">  1       21 0.63563618E-02 0.30000000E+03</pdfrwt>
<pdfrwt beam="2">0</pdfrwt>
<totfact> 0.19073447E+04</totfact>
</mgrwt>
</event>
<event>
 6    1  0.1273846E-001  0.3000000E+03  0.7818608E-02  0.1093470E+00
         21   -1    0    0  501  502  0.00000000000E+00  0.00000000000E+00  0.25539411962E+01  0.25539411962E+01  0.00000000000E+00 0. -1.
         13   -1    0    0    0    0 -0.00000000000E+00 -0.00000000000E+00 -0.10000000000E+04  0.10000000000E+04  0.00000000000E+00 0.  1.
    9000005    2    1    2  501    0 -0.30588441082E+02 -0.15157494167E+02 -0.86801477708E+03  0.86869633384E+03  0.42737394085E+01 0.  0.
         13    1    3    3    0    0 -0.19573864917E+02 -0.99942073655E+01 -0.60813554357E+03  0.60853254615E+03  0.00000000000E+00 0.  1.
          1    1    3    3  501    0 -0.11014576165E+02 -0.51632868014E+01 -0.25987923351E+03  0.26016378769E+03  0.00000000000E+00 0.  1.
         -3    1    1    2    0  502  0.30588441082E+02  0.15157494167E+02 -0.12943128173E+03  0.13385760736E+03  0.00000000000E+00 0. -1.
<mgrwt>
<rscale>  1 0.30000000E+03</rscale>
<asrwt>0</asrwt>
<pdfrwt beam="1">  1       21 0.92870785E-02 0.30000000E+03</pdfrwt>
<pdfrwt beam="2">0</pdfrwt>
<totfact> 0.98157152E+03</totfact>
</mgrwt>
</event>
<event>
 6    1  0.1273846E-001  0.3000000E+03  0.7818608E-02  0.1093470E+00
         21   -1    0    0  501  502  0.00000000000E+00  0.00000000000E+00  0.16200989459E+01  0.16200989459E+01  0.00000000000E+00 0. -1.
         13   -1    0    0    0    0 -0.00000000000E+00 -0.00000000000E+00 -0.10000000000E+04  0.10000000000E+04  0.00000000000E+00 0.  1.
    9000005    2    1    2  501    0 -0.30627777897E+02  0.25998827816E+02 -0.48651811606E+03  0.48818413725E+03  0.31424162343E+01 0.  0.
         13    1    3    3    0    0 -0.10743238206E+02  0.95874838626E+01 -0.15700108113E+03  0.15766000282E+03  0.00000000000E+00 0.  1.
          3    1    3    3  501    0 -0.19884539691E+02  0.16411343954E+02 -0.32951703494E+03  0.33052413443E+03  0.00000000000E+00 0.  1.
         -3    1    1    2    0  502  0.30627777897E+02 -0.25998827816E+02 -0.51186178499E+03  0.51343596169E+03  0.00000000000E+00 0. -1.
<mgrwt>
<rscale>  1 0.30000000E+03</rscale>
<asrwt>0</asrwt>
<pdfrwt beam="1">  1       21 0.58912813E-02 0.30000000E+03</pdfrwt>
<pdfrwt beam="2">0</pdfrwt>
<totfact> 0.21746546E+04</totfact>
</mgrwt>
</event>
<event>
 6    1  0.1273846E-001  0.3000000E+03  0.7818608E-02  0.1093470E+00
         21   -1    0    0  501  502  0.00000000000E+00  0.00000000000E+00  0.15265568109E+01  0.15265568109E+01  0.00000000000E+00 0. -1.
         13   -1    0    0    0    0 -0.00000000000E+00 -0.00000000000E+00 -0.10000000000E+04  0.10000000000E+04  0.00000000000E+00 0.  1.
    9000005    2    1    2  501    0 -0.24567598819E+02  0.26595879341E+02 -0.68621836019E+03  0.68717938477E+03  0.29935405619E+01 0.  0.
         13    1    3    3    0    0 -0.22493771335E+02  0.25404091842E+02 -0.63763332244E+03  0.63853550529E+03  0.00000000000E+00 0.  1.
          1    1    3    3  501    0 -0.20738274840E+01  0.11917874996E+01 -0.48585037753E+02  0.48643879485E+02  0.00000000000E+00 0.  1.
         -1    1    1    2    0  502  0.24567598819E+02 -0.26595879341E+02 -0.31225508300E+03  0.31434717204E+03  0.00000000000E+00 0. -1.
<mgrwt>
<rscale>  1 0.30000000E+03</rscale>
<asrwt>0</asrwt>
<pdfrwt beam="1">  1       21 0.55511274E-02 0.30000000E+03</pdfrwt>
<pdfrwt beam="2">0</pdfrwt>
<totfact> 0.24088779E+04</totfact>
</mgrwt>
</event>
<event>
 6    1  0.1273846E-001  0.3000000E+03  0.7818608E-02  0.1093470E+00
         21   -1    0    0  501  502  0.00000000000E+00  0.00000000000E+00  0.43827813945E+01  0.43827813945E+01  0.00000000000E+00 0. -1.
         13   -1    0    0    0    0 -0.00000000000E+00 -0.00000000000E+00 -0.10000000000E+04  0.10000000000E+04  0.00000000000E+00 0.  1.
    9000005    2    1    2  501    0 -0.26608634646E+01  0.58832803321E+02 -0.72683223694E+03  0.72922147359E+03  0.32369670916E+01 0.  0.
         13    1    3    3    0    0 -0.86726112507E+00  0.46099736773E+02 -0.56139765883E+03  0.56328790970E+03  0.00000000000E+00 0.  1.
          3    1    3    3  501    0 -0.17936023395E+01  0.12733066549E+02 -0.16543457811E+03  0.16593356389E+03  0.00000000000E+00 0.  1.
         -1    1    1    2    0  502  0.26608634646E+01 -0.58832803321E+02 -0.26878498167E+03  0.27516130780E+03  0.00000000000E+00 0. -1.
<mgrwt>
<rscale>  1 0.30000000E+03</rscale>
<asrwt>0</asrwt>
<pdfrwt beam="1">  1       21 0.15937420E-01 0.30000000E+03</pdfrwt>
<pdfrwt beam="2">0</pdfrwt>
<totfact> 0.36794391E+03</totfact>
</mgrwt>
</event>
<event>
 6    1  0.1273846E-001  0.3000000E+03  0.7818608E-02  0.1093470E+00
         21   -1    0    0  501  502  0.00000000000E+00  0.00000000000E+00  0.73654727926E+01  0.73654727926E+01  0.00000000000E+00 0. -1.
         13   -1    0    0    0    0 -0.00000000000E+00 -0.00000000000E+00 -0.10000000000E+04  0.10000000000E+04  0.00000000000E+00 0.  1.
    9000005    2    1    2  501    0 -0.52349349274E+01  0.36861188373E+02 -0.95011237387E+03  0.95084746436E+03  0.33504867353E+01 0.  0.
         13    1    3    3    0    0 -0.19831348384E+01  0.25031565848E+02 -0.64397921721E+03  0.64446857512E+03  0.00000000000E+00 0.  1.
          3    1    3    3  501    0 -0.32518000890E+01  0.11829622525E+02 -0.30613315665E+03  0.30637888925E+03  0.00000000000E+00 0.  1.
         -3    1    1    2    0  502  0.52349349274E+01 -0.36861188373E+02 -0.42522153341E+02  0.56518008428E+02  0.00000000000E+00 0. -1.
<mgrwt>
<rscale>  1 0.30000000E+03</rscale>
<asrwt>0</asrwt>
<pdfrwt beam="1">  1       21 0.26783594E-01 0.30000000E+03</pdfrwt>
<pdfrwt beam="2">0</pdfrwt>
<totfact> 0.13619442E+03</totfact>
</mgrwt>
</event>
<event>
 6    1  0.1273846E-001  0.3000000E+03  0.7818608E-02  0.1093470E+00
         21   -1    0    0  501  502  0.00000000000E+00  0.00000000000E+00  0.16075918860E+01  0.16075918860E+01  0.00000000000E+00 0. -1.
         13   -1    0    0    0    0 -0.00000000000E+00 -0.00000000000E+00 -0.10000000000E+04  0.10000000000E+04  0.00000000000E+00 0.  1.
    9000005    2    1    2  501    0 -0.31000540799E+02  0.29883532399E+01 -0.81403923814E+03  0.81464220722E+03  0.34757391862E+01 0.  0.
         13    1    3    3    0    0 -0.42936378014E+01  0.15467997153E+01 -0.13134314206E+03  0.13142240631E+03  0.00000000000E+00 0.  1.
          1    1    3    3  501    0 -0.26706902998E+02  0.14415535246E+01 -0.68269609609E+03  0.68321980091E+03  0.00000000000E+00 0.  1.
         -1    1    1    2    0  502  0.31000540799E+02 -0.29883532399E+01 -0.18435316997E+03  0.18696538466E+03  0.00000000000E+00 0. -1.
<mgrwt>
<rscale>  1 0.30000000E+03</rscale>
<asrwt>0</asrwt>
<pdfrwt beam="1">  1       21 0.58458010E-02 0.30000000E+03</pdfrwt>
<pdfrwt beam="2">0</pdfrwt>
<totfact> 0.22038913E+04</totfact>
</mgrwt>
</event>
<event>
 6    1  0.1273846E-001  0.3000000E+03  0.7818608E-02  0.1093470E+00
         21   -1    0    0  501  502  0.00000000000E+00  0.00000000000E+00  0.10173820602E+01  0.10173820602E+01  0.00000000000E+00 0. -1.
         13   -1    0    0    0    0 -0.00000000000E+00 -0.00000000000E+00 -0.10000000000E+04  0.10000000000E+04  0.00000000000E+00 0.  1.
    9000005    2    1    2  501    0 -0.55346809033E+01 -0.31296898945E+02 -0.50618537310E+03  0.50719630809E+03  0.37860827452E+01 0.  0.
         13    1    3    3    0    0  0.47485145484E+00 -0.27522595167E+01 -0.52326704620E+02  0.52401187321E+02  0.00000000000E+00 0.  1.
          1    1    3    3  501    0 -0.60095323582E+01 -0.28544639429E+02 -0.45385866848E+03  0.45479512077E+03  0.00000000000E+00 0.  1.
         -1    1    1    2    0  502  0.55346809033E+01  0.31296898945E+02 -0.49279724484E+03  0.49382107397E+03  0.00000000000E+00 0. -1.
<mgrwt>
<rscale>  1 0.30000000E+03</rscale>
<asrwt>0</asrwt>
<pdfrwt beam="1">  1       21 0.36995789E-02 0.30000000E+03</pdfrwt>
<pdfrwt beam="2">0</pdfrwt>
<totfact> 0.47944596E+04</totfact>
</mgrwt>
</event>
<event>
 6    1  0.1273846E-001  0.3000000E+03  0.7818608E-02  0.1093470E+00
         21   -1    0    0  501  502  0.00000000000E+00  0.00000000000E+00  0.13039327854E+02  0.13039327854E+02  0.00000000000E+00 0. -1.
         13   -1    0    0    0    0 -0.00000000000E+00 -0.00000000000E+00 -0.10000000000E+04  0.10000000000E+04  0.00000000000E+00 0.  1.
    9000005    2    1    2  501    0  0.51461664585E+02 -0.59321460462E+02 -0.86115342364E+03  0.86473288036E+03  0.32243955421E+01 0.  0.
         13    1    3    3    0    0  0.47996445237E+02 -0.53993070721E+02 -0.79068097109E+03  0.79397437520E+03  0.00000000000E+00 0.  1.
          3    1    3    3  501    0  0.34652193480E+01 -0.53283897406E+01 -0.70472452559E+02  0.70758505156E+02  0.00000000000E+00 0.  1.
         -1    1    1    2    0  502 -0.51461664585E+02  0.59321460462E+02 -0.12580724850E+03  0.14830644749E+03  0.00000000000E+00 0. -1.
<mgrwt>
<rscale>  1 0.30000000E+03</rscale>
<asrwt>0</asrwt>
<pdfrwt beam="1">  1       21 0.47415838E-01 0.30000000E+03</pdfrwt>
<pdfrwt beam="2">0</pdfrwt>
<totfact> 0.42128275E+02</totfact>
</mgrwt>
</event>
<event>
 6    1  0.1273846E-001  0.3000000E+03  0.7818608E-02  0.1093470E+00
         21   -1    0    0  501  502  0.00000000000E+00  0.00000000000E+00  0.33013821520E+01  0.33013821520E+01  0.00000000000E+00 0. -1.
         13   -1    0    0    0    0 -0.00000000000E+00 -0.00000000000E+00 -0.10000000000E+04  0.10000000000E+04  0.00000000000E+00 0.  1.
    9000005    2    1    2  501    0  0.49455216889E+02  0.24002629230E+02 -0.64331987282E+03  0.64567240943E+03  0.32337062387E+01 0.  0.
         13    1    3    3    0    0  0.19623517702E+02  0.91396731676E+01 -0.23545961296E+03  0.23645262826E+03  0.00000000000E+00 0.  1.
          1    1    3    3  501    0  0.29831699187E+02  0.14862956062E+02 -0.40786025985E+03  0.40921978118E+03  0.00000000000E+00 0.  1.
         -1    1    1    2    0  502 -0.49455216889E+02 -0.24002629230E+02 -0.35337874503E+03  0.35762897272E+03  0.00000000000E+00 0. -1.
<mgrwt>
<rscale>  1 0.30000000E+03</rscale>
<asrwt>0</asrwt>
<pdfrwt beam="1">  1       21 0.12005051E-01 0.30000000E+03</pdfrwt>
<pdfrwt beam="2">0</pdfrwt>
<totfact> 0.61923881E+03</totfact>
</mgrwt>
</event>
<event>
 6    1  0.1273846E-001  0.3000000E+03  0.7818608E-02  0.1093470E+00
         21   -1    0    0  501  502  0.00000000000E+00  0.00000000000E+00  0.12688313217E+01  0.12688313217E+01  0.00000000000E+00 0. -1.
         13   -1    0    0    0    0 -0.00000000000E+00 -0.00000000000E+00 -0.10000000000E+04  0.10000000000E+04  0.00000000000E+00 0.  1.
    9000005    2    1    2  501    0 -0.28001673505E+02  0.12473601492E+02 -0.75369132401E+03  0.75431901875E+03  0.26240635393E+01 0.  0.
         13    1    3    3    0    0 -0.21961205225E+02  0.86933568234E+01 -0.56688321306E+03  0.56737504900E+03  0.00000000000E+00 0.  1.
          1    1    3    3  501    0 -0.60404682797E+01  0.37802446686E+01 -0.18680811095E+03  0.18694396975E+03  0.00000000000E+00 0.  1.
         -1    1    1    2    0  502  0.28001673505E+02 -0.12473601492E+02 -0.24503984467E+03  0.24694981257E+03  0.00000000000E+00 0. -1.
<mgrwt>
<rscale>  1 0.30000000E+03</rscale>
<asrwt>0</asrwt>
<pdfrwt beam="1">  1       21 0.46139418E-02 0.30000000E+03</pdfrwt>
<pdfrwt beam="2">0</pdfrwt>
<totfact> 0.33025538E+04</totfact>
</mgrwt>
</event>
<event>
 6    1  0.1273846E-001  0.3000000E+03  0.7818608E-02  0.1093470E+00
         21   -1    0    0  501  502  0.00000000000E+00  0.00000000000E+00  0.15553120330E+02  0.15553120330E+02  0.00000000000E+00 0. -1.
         13   -1    0    0    0    0 -0.00000000000E+00 -0.00000000000E+00 -0.10000000000E+04  0.10000000000E+04  0.00000000000E+00 0.  1.
    9000005    2    1    2  501    0 -0.79522512134E+02  0.88403079667E+02 -0.64525127472E+03  0.65611940899E+03  0.21299984528E+01 0.  0.
         13    1    3    3    0    0 -0.87998284698E+01  0.10806072187E+02 -0.75480276540E+02  0.76755979075E+02  0.00000000000E+00 0.  1.
          1    1    3    3  501    0 -0.70722683664E+02  0.77597007480E+02 -0.56977099818E+03  0.57936342991E+03  0.00000000000E+00 0.  1.
         -3    1    1    2    0  502  0.79522512134E+02 -0.88403079667E+02 -0.33919560495E+03  0.35943371134E+03  0.00000000000E+00 0. -1.
<mgrwt>
<rscale>  1 0.30000000E+03</rscale>
<asrwt>0</asrwt>
<pdfrwt beam="1">  1       21 0.56556920E-01 0.30000000E+03</pdfrwt>
<pdfrwt beam="2">0</pdfrwt>
<totfact> 0.28657894E+02</totfact>
</mgrwt>
</event>
<event>
 6    1  0.1273846E-001  0.3000000E+03  0.7818608E-02  0.1093470E+00
         21   -1    0    0  501  502  0.00000000000E+00  0.00000000000E+00  0.15041278128E+01  0.15041278128E+01  0.00000000000E+00 0. -1.
         13   -1    0    0    0    0 -0.00000000000E+00 -0.00000000000E+00 -0.10000000000E+04  0.10000000000E+04  0.00000000000E+00 0.  1.
    9000005    2    1    2  501    0  0.21735316551E+02 -0.28802369181E+02 -0.67749545777E+03  0.67848204418E+03  0.59823511162E+01 0.  0.
         13    1    3    3    0    0  0.14630550362E+02 -0.23068274576E+02 -0.48187778603E+03  0.48265142594E+03  0.00000000000E+00 0.  1.
          3    1    3    3  501    0  0.71047661893E+01 -0.57340946053E+01 -0.19561767174E+03  0.19583061824E+03  0.00000000000E+00 0.  1.
         -3    1    1    2    0  502 -0.21735316551E+02  0.28802369181E+02 -0.32100041442E+03  0.32302208363E+03  0.00000000000E+00 0. -1.
<mgrwt>
<rscale>  1 0.30000000E+03</rscale>
<asrwt>0</asrwt>
<pdfrwt beam="1">  1       21 0.54695672E-02 0.30000000E+03</pdfrwt>
<pdfrwt beam="2">0</pdfrwt>
<totfact> 0.24708061E+04</totfact>
</mgrwt>
</event>
<event>
 6    1  0.1273846E-001  0.3000000E+03  0.7818608E-02  0.1093470E+00
         21   -1    0    0  501  502  0.00000000000E+00  0.00000000000E+00  0.99011153379E+00  0.99011153379E+00  0.00000000000E+00 0. -1.
         13   -1    0    0    0    0 -0.00000000000E+00 -0.00000000000E+00 -0.10000000000E+04  0.10000000000E+04  0.00000000000E+00 0.  1.
    9000005    2    1    2  501    0  0.11421375853E+02  0.29091033273E+02 -0.54519384495E+03  0.54609920440E+03  0.33580393276E+01 0.  0.
         13    1    3    3    0    0 -0.18560264450E+00  0.20847669369E+00 -0.31573708068E+01  0.31696847296E+01  0.00000000000E+00 0.  1.
          1    1    3    3  501    0  0.11606978498E+02  0.28882556579E+02 -0.54203647414E+03  0.54292951967E+03  0.00000000000E+00 0.  1.
         -3    1    1    2    0  502 -0.11421375853E+02 -0.29091033273E+02 -0.45381604352E+03  0.45489090714E+03  0.00000000000E+00 0. -1.
<mgrwt>
<rscale>  1 0.30000000E+03</rscale>
<asrwt>0</asrwt>
<pdfrwt beam="1">  1       21 0.36004132E-02 0.30000000E+03</pdfrwt>
<pdfrwt beam="2">0</pdfrwt>
<totfact> 0.50180653E+04</totfact>
</mgrwt>
</event>
<event>
 6    1  0.1273846E-001  0.3000000E+03  0.7818608E-02  0.1093470E+00
         21   -1    0    0  501  502  0.00000000000E+00  0.00000000000E+00  0.14419834300E+01  0.14419834300E+01  0.00000000000E+00 0. -1.
         13   -1    0    0    0    0 -0.00000000000E+00 -0.00000000000E+00 -0.10000000000E+04  0.10000000000E+04  0.00000000000E+00 0.  1.
    9000005    2    1    2  501    0  0.34118532152E+02  0.14912545920E+02 -0.40837356953E+03  0.41008410550E+03  0.36800857267E+01 0.  0.
         13    1    3    3    0    0  0.78949353716E+01  0.51519592579E+01 -0.10668230974E+03  0.10709802940E+03  0.00000000000E+00 0.  1.
          1    1    3    3  501    0  0.26223596780E+02  0.97605866619E+01 -0.30169125979E+03  0.30298607611E+03  0.00000000000E+00 0.  1.
         -3    1    1    2    0  502 -0.34118532152E+02 -0.14912545920E+02 -0.59018444704E+03  0.59135787793E+03  0.00000000000E+00 0. -1.
<mgrwt>
<rscale>  1 0.30000000E+03</rscale>
<asrwt>0</asrwt>
<pdfrwt beam="1">  1       21 0.52435872E-02 0.30000000E+03</pdfrwt>
<pdfrwt beam="2">0</pdfrwt>
<totfact> 0.26558358E+04</totfact>
</mgrwt>
</event>
<event>
 6    1  0.1273846E-001  0.3000000E+03  0.7818608E-02  0.1093470E+00
         21   -1    0    0  501  502  0.00000000000E+00  0.00000000000E+00  0.11107424383E+01  0.11107424383E+01  0.00000000000E+00 0. -1.
         13   -1    0    0    0    0 -0.00000000000E+00 -0.00000000000E+00 -0.10000000000E+04  0.10000000000E+04  0.00000000000E+00 0.  1.
    9000005    2    1    2  501    0 -0.12495283363E+02  0.29149974728E+02 -0.63083568553E+03  0.63169324824E+03  0.87661053807E+01 0.  0.
         13    1    3    3    0    0 -0.87134359087E+01  0.12292677394E+02 -0.23669239791E+03  0.23717150991E+03  0.00000000000E+00 0.  1.
          1    1    3    3  501    0 -0.37818474542E+01  0.16857297334E+02 -0.39414328762E+03  0.39452173834E+03  0.00000000000E+00 0.  1.
         -3    1    1    2    0  502  0.12495283363E+02 -0.29149974728E+02 -0.36805357203E+03  0.36941749420E+03  0.00000000000E+00 0. -1.
<mgrwt>
<rscale>  1 0.30000000E+03</rscale>
<asrwt>0</asrwt>
<pdfrwt beam="1">  1       21 0.40390719E-02 0.30000000E+03</pdfrwt>
<pdfrwt beam="2">0</pdfrwt>
<totfact> 0.41364453E+04</totfact>
</mgrwt>
</event>
<event>
 6    1  0.1273846E-001  0.3000000E+03  0.7818608E-02  0.1093470E+00
         21   -1    0    0  501  502  0.00000000000E+00  0.00000000000E+00  0.16746012694E+01  0.16746012694E+01  0.00000000000E+00 0. -1.
         13   -1    0    0    0    0 -0.00000000000E+00 -0.00000000000E+00 -0.10000000000E+04  0.10000000000E+04  0.00000000000E+00 0.  1.
    9000005    2    1    2  501    0  0.35297962637E+02  0.15375686741E+02 -0.33246723056E+03  0.33470424358E+03  0.31801523655E+01 0.  0.
         13    1    3    3    0    0  0.21143040222E+01  0.30701383875E+00 -0.14840143884E+02  0.14993145417E+02  0.00000000000E+00 0.  1.
          1    1    3    3  501    0  0.33183658614E+02  0.15068672903E+02 -0.31762708667E+03  0.31971109817E+03  0.00000000000E+00 0.  1.
         -1    1    1    2    0  502 -0.35297962637E+02 -0.15375686741E+02 -0.66585816817E+03  0.66697035769E+03  0.00000000000E+00 0. -1.
<mgrwt>
<rscale>  1 0.30000000E+03</rscale>
<asrwt>0</asrwt>
<pdfrwt beam="1">  1       21 0.60894720E-02 0.30000000E+03</pdfrwt>
<pdfrwt beam="2">0</pdfrwt>
<totfact> 0.20540398E+04</totfact>
</mgrwt>
</event>
<event>
 6    1  0.1273846E-001  0.3000000E+03  0.7818608E-02  0.1093470E+00
         21   -1    0    0  501  502  0.00000000000E+00  0.00000000000E+00  0.12235972182E+01  0.12235972182E+01  0.00000000000E+00 0. -1.
         13   -1    0    0    0    0 -0.00000000000E+00 -0.00000000000E+00 -0.10000000000E+04  0.10000000000E+04  0.00000000000E+00 0.  1.
    9000005    2    1    2  501    0 -0.30073725282E+02 -0.75831385595E+01 -0.72863663325E+03  0.72930922094E+03  0.43201267433E+01 0.  0.
         13    1    3    3    0    0 -0.34940217385E+01  0.48077410261E+00 -0.88559607414E+02  0.88629810994E+02  0.00000000000E+00 0.  1.
          3    1    3    3  501    0 -0.26579703544E+02 -0.80639126621E+01 -0.64007702583E+03  0.64067940995E+03  0.00000000000E+00 0.  1.
         -3    1    1    2    0  502  0.30073725282E+02  0.75831385595E+01 -0.27013976953E+03  0.27191437628E+03  0.00000000000E+00 0. -1.
<mgrwt>
<rscale>  1 0.30000000E+03</rscale>
<asrwt>0</asrwt>
<pdfrwt beam="1">  1       21 0.44494538E-02 0.30000000E+03</pdfrwt>
<pdfrwt beam="2">0</pdfrwt>
<totfact> 0.35124763E+04</totfact>
</mgrwt>
</event>
<event>
 6    1  0.1273846E-001  0.3000000E+03  0.7818608E-02  0.1093470E+00
         21   -1    0    0  501  502  0.00000000000E+00  0.00000000000E+00  0.17835882244E+01  0.17835882244E+01  0.00000000000E+00 0. -1.
         13   -1    0    0    0    0 -0.00000000000E+00 -0.00000000000E+00 -0.10000000000E+04  0.10000000000E+04  0.00000000000E+00 0.  1.
    9000005    2    1    2  501    0  0.19326137547E+01  0.35506632128E+02 -0.76871881764E+03  0.76954749793E+03  0.32054728427E+01 0.  0.
         13    1    3    3    0    0  0.26025138402E+01  0.19138535963E+02 -0.42346643606E+03  0.42390668679E+03  0.00000000000E+00 0.  1.
          1    1    3    3  501    0 -0.66990008547E+00  0.16368096165E+02 -0.34525238158E+03  0.34564081114E+03  0.00000000000E+00 0.  1.
         -1    1    1    2    0  502 -0.19326137547E+01 -0.35506632128E+02 -0.22949759414E+03  0.23223609029E+03  0.00000000000E+00 0. -1.
<mgrwt>
<rscale>  1 0.30000000E+03</rscale>
<asrwt>0</asrwt>
<pdfrwt beam="1">  1       21 0.64857890E-02 0.30000000E+03</pdfrwt>
<pdfrwt beam="2">0</pdfrwt>
<totfact> 0.18419710E+04</totfact>
</mgrwt>
</event>
<event>
 6    1  0.1273846E-001  0.3000000E+03  0.7818608E-02  0.1093470E+00
         21   -1    0    0  501  502  0.00000000000E+00  0.00000000000E+00  0.94211274010E+00  0.94211274010E+00  0.00000000000E+00 0. -1.
         13   -1    0    0    0    0 -0.00000000000E+00 -0.00000000000E+00 -0.10000000000E+04  0.10000000000E+04  0.00000000000E+00 0.  1.
    9000005    2    1    2  501    0  0.15913043973E+02  0.25971689410E+02 -0.45032137755E+03  0.45136089881E+03  0.30926160848E+01 0.  0.
         13    1    3    3    0    0  0.47123285484E+01  0.92885722752E+01 -0.13644328364E+03  0.13684024724E+03  0.00000000000E+00 0.  1.
          3    1    3    3  501    0  0.11200715425E+02  0.16683117135E+02 -0.31387809391E+03  0.31452065156E+03  0.00000000000E+00 0.  1.
         -1    1    1    2    0  502 -0.15913043973E+02 -0.25971689410E+02 -0.54873650971E+03  0.54958121393E+03  0.00000000000E+00 0. -1.
<mgrwt>
<rscale>  1 0.30000000E+03</rscale>
<asrwt>0</asrwt>
<pdfrwt beam="1">  1       21 0.34258717E-02 0.30000000E+03</pdfrwt>
<pdfrwt beam="2">0</pdfrwt>
<totfact> 0.54535599E+04</totfact>
</mgrwt>
</event>
<event>
 6    1  0.1273846E-001  0.3000000E+03  0.7818608E-02  0.1093470E+00
         21   -1    0    0  501  502  0.00000000000E+00  0.00000000000E+00  0.13268620475E+01  0.13268620475E+01  0.00000000000E+00 0. -1.
         13   -1    0    0    0    0 -0.00000000000E+00 -0.00000000000E+00 -0.10000000000E+04  0.10000000000E+04  0.00000000000E+00 0.  1.
    9000005    2    1    2  501    0  0.27808095945E+02 -0.23371599472E+02 -0.51393988700E+03  0.51523443622E+03  0.35770045778E+01 0.  0.
         13    1    3    3    0    0  0.17295035210E+02 -0.12250010478E+02 -0.30167308983E+03  0.30241665650E+03  0.00000000000E+00 0.  1.
          1    1    3    3  501    0  0.10513060735E+02 -0.11121588994E+02 -0.21226679717E+03  0.21281777973E+03  0.00000000000E+00 0.  1.
         -1    1    1    2    0  502 -0.27808095945E+02  0.23371599472E+02 -0.48473325096E+03  0.48609242582E+03  0.00000000000E+00 0. -1.
<mgrwt>
<rscale>  1 0.30000000E+03</rscale>
<asrwt>0</asrwt>
<pdfrwt beam="1">  1       21 0.48249631E-02 0.30000000E+03</pdfrwt>
<pdfrwt beam="2">0</pdfrwt>
<totfact> 0.30607163E+04</totfact>
</mgrwt>
</event>
<event>
 6    1  0.1273846E-001  0.3000000E+03  0.7818608E-02  0.1093470E+00
         21   -1    0    0  501  502  0.00000000000E+00  0.00000000000E+00  0.25173230674E+01  0.25173230674E+01  0.00000000000E+00 0. -1.
         13   -1    0    0    0    0 -0.00000000000E+00 -0.00000000000E+00 -0.10000000000E+04  0.10000000000E+04  0.00000000000E+00 0.  1.
    9000005    2    1    2  501    0 -0.74155052638E+01 -0.39887495076E+02 -0.79323956059E+03  0.79428367411E+03  0.33988972392E+01 0.  0.
         13    1    3    3    0    0  0.33986634530E+00 -0.23106995553E+01 -0.41831391863E+02  0.41896541466E+02  0.00000000000E+00 0.  1.
          1    1    3    3  501    0 -0.77553716091E+01 -0.37576795521E+02 -0.75140816872E+03  0.75238713265E+03  0.00000000000E+00 0.  1.
         -3    1    1    2    0  502  0.74155052638E+01  0.39887495076E+02 -0.20424311635E+03  0.20823364895E+03  0.00000000000E+00 0. -1.
<mgrwt>
<rscale>  1 0.30000000E+03</rscale>
<asrwt>0</asrwt>
<pdfrwt beam="1">  1       21 0.91539214E-02 0.30000000E+03</pdfrwt>
<pdfrwt beam="2">0</pdfrwt>
<totfact> 0.10070694E+04</totfact>
</mgrwt>
</event>
<event>
 6    1  0.1273846E-001  0.3000000E+03  0.7818608E-02  0.1093470E+00
         21   -1    0    0  501  502  0.00000000000E+00  0.00000000000E+00  0.14254167653E+01  0.14254167653E+01  0.00000000000E+00 0. -1.
         13   -1    0    0    0    0 -0.00000000000E+00 -0.00000000000E+00 -0.10000000000E+04  0.10000000000E+04  0.00000000000E+00 0.  1.
    9000005    2    1    2  501    0  0.36698656447E+02 -0.13678792413E+01 -0.61106198534E+03  0.61217655549E+03  0.38370148501E+01 0.  0.
         13    1    3    3    0    0  0.63227245490E+01 -0.78919987408E+00 -0.85438188814E+02  0.85675456170E+02  0.00000000000E+00 0.  1.
          3    1    3    3  501    0  0.30375931898E+02 -0.57867936719E+00 -0.52562379652E+03  0.52650109932E+03  0.00000000000E+00 0.  1.
         -1    1    1    2    0  502 -0.36698656447E+02  0.13678792413E+01 -0.38751259790E+03  0.38924886128E+03  0.00000000000E+00 0. -1.
<mgrwt>
<rscale>  1 0.30000000E+03</rscale>
<asrwt>0</asrwt>
<pdfrwt beam="1">  1       21 0.51833446E-02 0.30000000E+03</pdfrwt>
<pdfrwt beam="2">0</pdfrwt>
<totfact> 0.27087918E+04</totfact>
</mgrwt>
</event>
<event>
 6    1  0.1273846E-001  0.3000000E+03  0.7818608E-02  0.1093470E+00
         21   -1    0    0  501  502  0.00000000000E+00  0.00000000000E+00  0.42371118975E+01  0.42371118975E+01  0.00000000000E+00 0. -1.
         13   -1    0    0    0    0 -0.00000000000E+00 -0.00000000000E+00 -0.10000000000E+04  0.10000000000E+04  0.00000000000E+00 0.  1.
    9000005    2    1    2  501    0 -0.38102529590E+02 -0.12862859751E+02 -0.89262363447E+03  0.89353498201E+03  0.32488976464E+01 0.  0.
         13    1    3    3    0    0 -0.21220272767E+01 -0.15406621461E+01 -0.61176459883E+02  0.61232637404E+02  0.00000000000E+00 0.  1.
          1    1    3    3  501    0 -0.35980502313E+02 -0.11322197605E+02 -0.83144717459E+03  0.83230234460E+03  0.00000000000E+00 0.  1.
         -1    1    1    2    0  502  0.38102529590E+02  0.12862859751E+02 -0.10313925363E+03  0.11070212989E+03  0.00000000000E+00 0. -1.
<mgrwt>
<rscale>  1 0.30000000E+03</rscale>
<asrwt>0</asrwt>
<pdfrwt beam="1">  1       21 0.15407712E-01 0.30000000E+03</pdfrwt>
<pdfrwt beam="2">0</pdfrwt>
<totfact> 0.39182965E+03</totfact>
</mgrwt>
</event>
<event>
 6    1  0.1273846E-001  0.3000000E+03  0.7818608E-02  0.1093470E+00
         21   -1    0    0  501  502  0.00000000000E+00  0.00000000000E+00  0.41111345718E+01  0.41111345718E+01  0.00000000000E+00 0. -1.
         13   -1    0    0    0    0 -0.00000000000E+00 -0.00000000000E+00 -0.10000000000E+04  0.10000000000E+04  0.00000000000E+00 0.  1.
    9000005    2    1    2  501    0 -0.36175458396E+02 -0.45476443378E+01 -0.91084997785E+03  0.91158569342E+03  0.33837028401E+01 0.  0.
         13    1    3    3    0    0 -0.47017246870E+00 -0.44419611553E+00 -0.21708414907E+02  0.21718048948E+02  0.00000000000E+00 0.  1.
          3    1    3    3  501    0 -0.35705285928E+02 -0.41034482223E+01 -0.88914156295E+03  0.88986764448E+03  0.00000000000E+00 0.  1.
         -1    1    1    2    0  502  0.36175458396E+02  0.45476443378E+01 -0.85038887576E+02  0.92525441147E+02  0.00000000000E+00 0. -1.
<mgrwt>
<rscale>  1 0.30000000E+03</rscale>
<asrwt>0</asrwt>
<pdfrwt beam="1">  1       21 0.14949612E-01 0.30000000E+03</pdfrwt>
<pdfrwt beam="2">0</pdfrwt>
<totfact> 0.41437580E+03</totfact>
</mgrwt>
</event>
<event>
 6    1  0.1273846E-001  0.3000000E+03  0.7818608E-02  0.1093470E+00
         21   -1    0    0  501  502  0.00000000000E+00  0.00000000000E+00  0.14740619460E+01  0.14740619460E+01  0.00000000000E+00 0. -1.
         13   -1    0    0    0    0 -0.00000000000E+00 -0.00000000000E+00 -0.10000000000E+04  0.10000000000E+04  0.00000000000E+00 0.  1.
    9000005    2    1    2  501    0  0.37495534688E+02 -0.73449653878E+01 -0.46219263973E+03  0.46378151920E+03  0.33760463443E+01 0.  0.
         13    1    3    3    0    0  0.44429445235E+01 -0.18841621364E+01 -0.64603830279E+02  0.64783830619E+02  0.00000000000E+00 0.  1.
          3    1    3    3  501    0  0.33052590165E+02 -0.54608032515E+01 -0.39758880945E+03  0.39899768858E+03  0.00000000000E+00 0.  1.
         -3    1    1    2    0  502 -0.37495534688E+02  0.73449653878E+01 -0.53633329832E+03  0.53769254275E+03  0.00000000000E+00 0. -1.
<mgrwt>
<rscale>  1 0.30000000E+03</rscale>
<asrwt>0</asrwt>
<pdfrwt beam="1">  1       21 0.53602366E-02 0.30000000E+03</pdfrwt>
<pdfrwt beam="2">0</pdfrwt>
<totfact> 0.25577488E+04</totfact>
</mgrwt>
</event>
<event>
 6    1  0.1273846E-001  0.3000000E+03  0.7818608E-02  0.1093470E+00
         21   -1    0    0  501  502  0.00000000000E+00  0.00000000000E+00  0.38033278431E+01  0.38033278431E+01  0.00000000000E+00 0. -1.
         13   -1    0    0    0    0 -0.00000000000E+00 -0.00000000000E+00 -0.10000000000E+04  0.10000000000E+04  0.00000000000E+00 0.  1.
    9000005    2    1    2  501    0  0.34475471003E+02 -0.20745530854E+02 -0.87832920649E+03  0.87925745431E+03  0.35413042270E+01 0.  0.
         13    1    3    3    0    0  0.27788087685E+02 -0.16441710308E+02 -0.73308085850E+03  0.73379155947E+03  0.00000000000E+00 0.  1.
          3    1    3    3  501    0  0.66873833185E+01 -0.43038205464E+01 -0.14524834799E+03  0.14546589484E+03  0.00000000000E+00 0.  1.
         -1    1    1    2    0  502 -0.34475471003E+02  0.20745530854E+02 -0.11786746567E+03  0.12454587353E+03  0.00000000000E+00 0. -1.
<mgrwt>
<rscale>  1 0.30000000E+03</rscale>
<asrwt>0</asrwt>
<pdfrwt beam="1">  1       21 0.13830312E-01 0.30000000E+03</pdfrwt>
<pdfrwt beam="2">0</pdfrwt>
<totfact> 0.47825830E+03</totfact>
</mgrwt>
</event>
<event>
 6    1  0.1273846E-001  0.3000000E+03  0.7818608E-02  0.1093470E+00
         21   -1    0    0  501  502  0.00000000000E+00  0.00000000000E+00  0.12227277207E+01  0.12227277207E+01  0.00000000000E+00 0. -1.
         13   -1    0    0    0    0 -0.00000000000E+00 -0.00000000000E+00 -0.10000000000E+04  0.10000000000E+04  0.00000000000E+00 0.  1.
    9000005    2    1    2  501    0 -0.72022004833E+01 -0.32399167431E+02 -0.65462075832E+03  0.65546951538E+03  0.32203461628E+01 0.  0.
         13    1    3    3    0    0 -0.27677314356E+01 -0.75484097767E+01 -0.14154957592E+03  0.14177771782E+03  0.00000000000E+00 0.  1.
          1    1    3    3  501    0 -0.44344690477E+01 -0.24850757655E+02 -0.51307118241E+03  0.51369179757E+03  0.00000000000E+00 0.  1.
         -3    1    1    2    0  502  0.72022004833E+01  0.32399167431E+02 -0.34415651396E+03  0.34575321234E+03  0.00000000000E+00 0. -1.
<mgrwt>
<rscale>  1 0.30000000E+03</rscale>
<asrwt>0</asrwt>
<pdfrwt beam="1">  1       21 0.44462920E-02 0.30000000E+03</pdfrwt>
<pdfrwt beam="2">0</pdfrwt>
<totfact> 0.35167120E+04</totfact>
</mgrwt>
</event>
<event>
 6    1  0.1273846E-001  0.3000000E+03  0.7818608E-02  0.1093470E+00
         21   -1    0    0  501  502  0.00000000000E+00  0.00000000000E+00  0.12666528856E+01  0.12666528856E+01  0.00000000000E+00 0. -1.
         13   -1    0    0    0    0 -0.00000000000E+00 -0.00000000000E+00 -0.10000000000E+04  0.10000000000E+04  0.00000000000E+00 0.  1.
    9000005    2    1    2  501    0  0.33120078868E+02  0.11253071603E+02 -0.43374906369E+03  0.43520056861E+03  0.61411258102E+01 0.  0.
         13    1    3    3    0    0  0.12486989805E+02  0.50214375626E+01 -0.13263864010E+03  0.13331972321E+03  0.00000000000E+00 0.  1.
          3    1    3    3  501    0  0.20633089063E+02  0.62316340407E+01 -0.30111042359E+03  0.30188084541E+03  0.00000000000E+00 0.  1.
         -1    1    1    2    0  502 -0.33120078868E+02 -0.11253071603E+02 -0.56498428343E+03  0.56606608427E+03  0.00000000000E+00 0. -1.
<mgrwt>
<rscale>  1 0.30000000E+03</rscale>
<asrwt>0</asrwt>
<pdfrwt beam="1">  1       21 0.46060202E-02 0.30000000E+03</pdfrwt>
<pdfrwt beam="2">0</pdfrwt>
<totfact> 0.33122102E+04</totfact>
</mgrwt>
</event>
<event>
 6    1  0.1273846E-001  0.3000000E+03  0.7818608E-02  0.1093470E+00
         21   -1    0    0  501  502  0.00000000000E+00  0.00000000000E+00  0.93344552099E+00  0.93344552099E+00  0.00000000000E+00 0. -1.
         13   -1    0    0    0    0 -0.00000000000E+00 -0.00000000000E+00 -0.10000000000E+04  0.10000000000E+04  0.00000000000E+00 0.  1.
    9000005    2    1    2  501    0  0.25891576353E+02  0.15536298571E+02 -0.54020955824E+03  0.54108402093E+03  0.58138276929E+01 0.  0.
         13    1    3    3    0    0  0.25164346862E+01  0.40425028015E+00 -0.27145838998E+02  0.27265223945E+02  0.00000000000E+00 0.  1.
          3    1    3    3  501    0  0.23375141667E+02  0.15132048290E+02 -0.51306371924E+03  0.51381879699E+03  0.00000000000E+00 0.  1.
         -1    1    1    2    0  502 -0.25891576353E+02 -0.15536298571E+02 -0.45885699624E+03  0.45984942459E+03  0.00000000000E+00 0. -1.
<mgrwt>
<rscale>  1 0.30000000E+03</rscale>
<asrwt>0</asrwt>
<pdfrwt beam="1">  1       21 0.33943545E-02 0.30000000E+03</pdfrwt>
<pdfrwt beam="2">0</pdfrwt>
<totfact> 0.55384606E+04</totfact>
</mgrwt>
</event>
<event>
 6    1  0.1273846E-001  0.3000000E+03  0.7818608E-02  0.1093470E+00
         21   -1    0    0  501  502  0.00000000000E+00  0.00000000000E+00  0.11553309882E+01  0.11553309882E+01  0.00000000000E+00 0. -1.
         13   -1    0    0    0    0 -0.00000000000E+00 -0.00000000000E+00 -0.10000000000E+04  0.10000000000E+04  0.00000000000E+00 0.  1.
    9000005    2    1    2  501    0 -0.48197630803E+01  0.31462336637E+02 -0.67335563405E+03  0.67411371189E+03  0.28944613849E+01 0.  0.
         13    1    3    3    0    0 -0.23659313968E+01  0.16966307421E+02 -0.39220058750E+03  0.39257452039E+03  0.00000000000E+00 0.  1.
          3    1    3    3  501    0 -0.24538316835E+01  0.14496029216E+02 -0.28115504655E+03  0.28153919150E+03  0.00000000000E+00 0.  1.
         -3    1    1    2    0  502  0.48197630803E+01 -0.31462336637E+02 -0.32548903496E+03  0.32704161910E+03  0.00000000000E+00 0. -1.
<mgrwt>
<rscale>  1 0.30000000E+03</rscale>
<asrwt>0</asrwt>
<pdfrwt beam="1">  1       21 0.42012125E-02 0.30000000E+03</pdfrwt>
<pdfrwt beam="2">0</pdfrwt>
<totfact> 0.38707587E+04</totfact>
</mgrwt>
</event>
<event>
 6    1  0.1273846E-001  0.3000000E+03  0.7818608E-02  0.1093470E+00
         21   -1    0    0  501  502  0.00000000000E+00  0.00000000000E+00  0.20807113056E+01  0.20807113056E+01  0.00000000000E+00 0. -1.
         13   -1    0    0    0    0 -0.00000000000E+00 -0.00000000000E+00 -0.10000000000E+04  0.10000000000E+04  0.00000000000E+00 0.  1.
    9000005    2    1    2  501    0 -0.88028480095E+01  0.34999831170E+02 -0.80273168205E+03  0.80358466575E+03  0.82269885913E+01 0.  0.
         13    1    3    3    0    0 -0.29583627419E+01  0.10417520090E+02 -0.16678155916E+03  0.16713277689E+03  0.00000000000E+00 0.  1.
          3    1    3    3  501    0 -0.58444852676E+01  0.24582311081E+02 -0.63595012288E+03  0.63645188885E+03  0.00000000000E+00 0.  1.
         -3    1    1    2    0  502  0.88028480095E+01 -0.34999831170E+02 -0.19518760665E+03  0.19849604556E+03  0.00000000000E+00 0. -1.
<mgrwt>
<rscale>  1 0.30000000E+03</rscale>
<asrwt>0</asrwt>
<pdfrwt beam="1">  1       21 0.75662389E-02 0.30000000E+03</pdfrwt>
<pdfrwt beam="2">0</pdfrwt>
<totfact> 0.14085884E+04</totfact>
</mgrwt>
</event>
<event>
 6    1  0.1273846E-001  0.3000000E+03  0.7818608E-02  0.1093470E+00
         21   -1    0    0  501  502  0.00000000000E+00  0.00000000000E+00  0.11364517696E+01  0.11364517696E+01  0.00000000000E+00 0. -1.
         13   -1    0    0    0    0 -0.00000000000E+00 -0.00000000000E+00 -0.10000000000E+04  0.10000000000E+04  0.00000000000E+00 0.  1.
    9000005    2    1    2  501    0  0.19971529089E+01  0.33370904665E+02 -0.44619615355E+03  0.44745887859E+03  0.32916089162E+01 0.  0.
         13    1    3    3    0    0  0.27431362563E+01  0.20670459796E+02 -0.28421359863E+03  0.28497747692E+03  0.00000000000E+00 0.  1.
          3    1    3    3  501    0 -0.74598334738E+00  0.12700444869E+02 -0.16198255492E+03  0.16248140167E+03  0.00000000000E+00 0.  1.
         -3    1    1    2    0  502 -0.19971529089E+01 -0.33370904665E+02 -0.55266739468E+03  0.55367757318E+03  0.00000000000E+00 0. -1.
<mgrwt>
<rscale>  1 0.30000000E+03</rscale>
<asrwt>0</asrwt>
<pdfrwt beam="1">  1       21 0.41325606E-02 0.30000000E+03</pdfrwt>
<pdfrwt beam="2">0</pdfrwt>
<totfact> 0.39799095E+04</totfact>
</mgrwt>
</event>
<event>
 6    1  0.1273846E-001  0.3000000E+03  0.7818608E-02  0.1093470E+00
         21   -1    0    0  501  502  0.00000000000E+00  0.00000000000E+00  0.14612307530E+01  0.14612307530E+01  0.00000000000E+00 0. -1.
         13   -1    0    0    0    0 -0.00000000000E+00 -0.00000000000E+00 -0.10000000000E+04  0.10000000000E+04  0.00000000000E+00 0.  1.
    9000005    2    1    2  501    0 -0.29485430284E+02  0.96424031124E+01 -0.79120121493E+03  0.79181574913E+03  0.32328809145E+01 0.  0.
         13    1    3    3    0    0 -0.65852983603E+01  0.15241685581E+01 -0.14379516320E+03  0.14395394473E+03  0.00000000000E+00 0.  1.
          1    1    3    3  501    0 -0.22900131924E+02  0.81182345543E+01 -0.64740605173E+03  0.64786180440E+03  0.00000000000E+00 0.  1.
         -3    1    1    2    0  502  0.29485430284E+02 -0.96424031124E+01 -0.20733755432E+03  0.20964548163E+03  0.00000000000E+00 0. -1.
<mgrwt>
<rscale>  1 0.30000000E+03</rscale>
<asrwt>0</asrwt>
<pdfrwt beam="1">  1       21 0.53135776E-02 0.30000000E+03</pdfrwt>
<pdfrwt beam="2">0</pdfrwt>
<totfact> 0.25962994E+04</totfact>
</mgrwt>
</event>
<event>
 6    1  0.1273846E-001  0.3000000E+03  0.7818608E-02  0.1093470E+00
         21   -1    0    0  501  502  0.00000000000E+00  0.00000000000E+00  0.21933625860E+01  0.21933625860E+01  0.00000000000E+00 0. -1.
         13   -1    0    0    0    0 -0.00000000000E+00 -0.00000000000E+00 -0.10000000000E+04  0.10000000000E+04  0.00000000000E+00 0.  1.
    9000005    2    1    2  501    0  0.24766036318E+02  0.28791733011E+02 -0.79128987249E+03  0.79221361442E+03  0.45197482875E+01 0.  0.
         13    1    3    3    0    0  0.19645974253E+02  0.21504559969E+02 -0.56828927113E+03  0.56903524152E+03  0.00000000000E+00 0.  1.
          3    1    3    3  501    0  0.51200620650E+01  0.72871730422E+01 -0.22300060136E+03  0.22317837290E+03  0.00000000000E+00 0.  1.
         -1    1    1    2    0  502 -0.24766036318E+02 -0.28791733011E+02 -0.20651676492E+03  0.20997974816E+03  0.00000000000E+00 0. -1.
<mgrwt>
<rscale>  1 0.30000000E+03</rscale>
<asrwt>0</asrwt>
<pdfrwt beam="1">  1       21 0.79758808E-02 0.30000000E+03</pdfrwt>
<pdfrwt beam="2">0</pdfrwt>
<totfact> 0.12841790E+04</totfact>
</mgrwt>
</event>
<event>
 6    1  0.1273846E-001  0.3000000E+03  0.7818608E-02  0.1093470E+00
         21   -1    0    0  501  502  0.00000000000E+00  0.00000000000E+00  0.18611527146E+01  0.18611527146E+01  0.00000000000E+00 0. -1.
         13   -1    0    0    0    0 -0.00000000000E+00 -0.00000000000E+00 -0.10000000000E+04  0.10000000000E+04  0.00000000000E+00 0.  1.
    9000005    2    1    2  501    0 -0.33688198210E+02  0.81566449107E+00 -0.80736023170E+03  0.80812927569E+03  0.10335497298E+02 0.  0.
         13    1    3    3    0    0 -0.12734753106E+02 -0.42789320509E+01 -0.26456846786E+03  0.26490933804E+03  0.00000000000E+00 0.  1.
          3    1    3    3  501    0 -0.20953445104E+02  0.50945965420E+01 -0.54279176384E+03  0.54321993766E+03  0.00000000000E+00 0.  1.
         -3    1    1    2    0  502  0.33688198210E+02 -0.81566449107E+00 -0.19077861559E+03  0.19373187702E+03  0.00000000000E+00 0. -1.
<mgrwt>
<rscale>  1 0.30000000E+03</rscale>
<asrwt>0</asrwt>
<pdfrwt beam="1">  1       21 0.67678423E-02 0.30000000E+03</pdfrwt>
<pdfrwt beam="2">0</pdfrwt>
<totfact> 0.17109430E+04</totfact>
</mgrwt>
</event>
<event>
 6    1  0.1273846E-001  0.3000000E+03  0.7818608E-02  0.1093470E+00
         21   -1    0    0  501  502  0.00000000000E+00  0.00000000000E+00  0.19322747391E+01  0.19322747391E+01  0.00000000000E+00 0. -1.
         13   -1    0    0    0    0 -0.00000000000E+00 -0.00000000000E+00 -0.10000000000E+04  0.10000000000E+04  0.00000000000E+00 0.  1.
    9000005    2    1    2  501    0  0.99070242309E+01  0.42675957491E+02 -0.49613361862E+03  0.49808980543E+03  0.50497786740E+01 0.  0.
         13    1    3    3    0    0  0.96961194286E+00  0.40335058231E+01 -0.66516634803E+02  0.66645870255E+02  0.00000000000E+00 0.  1.
          3    1    3    3  501    0  0.89374122880E+01  0.38642451668E+02 -0.42961698382E+03  0.43144393517E+03  0.00000000000E+00 0.  1.
         -3    1    1    2    0  502 -0.99070242309E+01 -0.42675957491E+02 -0.50193410664E+03  0.50384246931E+03  0.00000000000E+00 0. -1.
<mgrwt>
<rscale>  1 0.30000000E+03</rscale>
<asrwt>0</asrwt>
<pdfrwt beam="1">  1       21 0.70264684E-02 0.30000000E+03</pdfrwt>
<pdfrwt beam="2">0</pdfrwt>
<totfact> 0.16029639E+04</totfact>
</mgrwt>
</event>
<event>
 6    1  0.1273846E-001  0.3000000E+03  0.7818608E-02  0.1093470E+00
         21   -1    0    0  501  502  0.00000000000E+00  0.00000000000E+00  0.94848162956E+01  0.94848162956E+01  0.00000000000E+00 0. -1.
         13   -1    0    0    0    0 -0.00000000000E+00 -0.00000000000E+00 -0.10000000000E+04  0.10000000000E+04  0.00000000000E+00 0.  1.
    9000005    2    1    2  501    0  0.31744610661E+02 -0.12339199923E+02 -0.96811461335E+03  0.96872010468E+03  0.35721804227E+01 0.  0.
         13    1    3    3    0    0  0.17857834235E+02 -0.78593369136E+01 -0.50955081395E+03  0.50992421341E+03  0.00000000000E+00 0.  1.
          1    1    3    3  501    0  0.13886776426E+02 -0.44798630093E+01 -0.45856379940E+03  0.45879589127E+03  0.00000000000E+00 0.  1.
         -3    1    1    2    0  502 -0.31744610661E+02  0.12339199923E+02 -0.22400570355E+02  0.40764711614E+02  0.00000000000E+00 0. -1.
<mgrwt>
<rscale>  1 0.30000000E+03</rscale>
<asrwt>0</asrwt>
<pdfrwt beam="1">  1       21 0.34490314E-01 0.30000000E+03</pdfrwt>
<pdfrwt beam="2">0</pdfrwt>
<totfact> 0.82001357E+02</totfact>
</mgrwt>
</event>
<event>
 6    1  0.1273846E-001  0.3000000E+03  0.7818608E-02  0.1093470E+00
         21   -1    0    0  501  502  0.00000000000E+00  0.00000000000E+00  0.22456102767E+01  0.22456102767E+01  0.00000000000E+00 0. -1.
         13   -1    0    0    0    0 -0.00000000000E+00 -0.00000000000E+00 -0.10000000000E+04  0.10000000000E+04  0.00000000000E+00 0.  1.
    9000005    2    1    2  501    0  0.36703156651E+02 -0.19220976674E+02 -0.73560543293E+03  0.73684281602E+03  0.10267176289E+02 0.  0.
         13    1    3    3    0    0  0.13923130205E+01 -0.57477210603E-01 -0.74067646055E+01  0.75367102304E+01  0.00000000000E+00 0.  1.
          1    1    3    3  501    0  0.35310843631E+02 -0.19163499463E+02 -0.72819866833E+03  0.72930610579E+03  0.00000000000E+00 0.  1.
         -3    1    1    2    0  502 -0.36703156651E+02  0.19220976674E+02 -0.26214895679E+03  0.26540279426E+03  0.00000000000E+00 0. -1.
<mgrwt>
<rscale>  1 0.30000000E+03</rscale>
<asrwt>0</asrwt>
<pdfrwt beam="1">  1       21 0.81658728E-02 0.30000000E+03</pdfrwt>
<pdfrwt beam="2">0</pdfrwt>
<totfact> 0.12321352E+04</totfact>
</mgrwt>
</event>
<event>
 6    1  0.1273846E-001  0.3000000E+03  0.7818608E-02  0.1093470E+00
         21   -1    0    0  501  502  0.00000000000E+00  0.00000000000E+00  0.17808266890E+01  0.17808266890E+01  0.00000000000E+00 0. -1.
         13   -1    0    0    0    0 -0.00000000000E+00 -0.00000000000E+00 -0.10000000000E+04  0.10000000000E+04  0.00000000000E+00 0.  1.
    9000005    2    1    2  501    0  0.32413860836E+02  0.38678215427E+01 -0.81500532695E+03  0.81568157382E+03  0.60933163922E+01 0.  0.
         13    1    3    3    0    0  0.19146357935E+01  0.12347573694E+01 -0.92421304141E+02  0.92449380285E+02  0.00000000000E+00 0.  1.
          1    1    3    3  501    0  0.30499225042E+02  0.26330641733E+01 -0.72258402281E+03  0.72323219354E+03  0.00000000000E+00 0.  1.
         -1    1    1    2    0  502 -0.32413860836E+02 -0.38678215427E+01 -0.18321384636E+03  0.18609925286E+03  0.00000000000E+00 0. -1.
<mgrwt>
<rscale>  1 0.30000000E+03</rscale>
<asrwt>0</asrwt>
<pdfrwt beam="1">  1       21 0.64757471E-02 0.30000000E+03</pdfrwt>
<pdfrwt beam="2">0</pdfrwt>
<totfact> 0.18469184E+04</totfact>
</mgrwt>
</event>
<event>
 6    1  0.1273846E-001  0.3000000E+03  0.7818608E-02  0.1093470E+00
         21   -1    0    0  501  502  0.00000000000E+00  0.00000000000E+00  0.93436492841E+01  0.93436492841E+01  0.00000000000E+00 0. -1.
         13   -1    0    0    0    0 -0.00000000000E+00 -0.00000000000E+00 -0.10000000000E+04  0.10000000000E+04  0.00000000000E+00 0.  1.
    9000005    2    1    2  501    0 -0.30121643242E+02  0.39991921166E+02 -0.92699423180E+03  0.92835270822E+03  0.37118609502E+01 0.  0.
         13    1    3    3    0    0 -0.29202770821E+01  0.53160176952E+01 -0.97435595421E+02  0.97624194324E+02  0.00000000000E+00 0.  1.
          3    1    3    3  501    0 -0.27201366160E+02  0.34675903471E+02 -0.82955863638E+03  0.83072851389E+03  0.00000000000E+00 0.  1.
         -1    1    1    2    0  502  0.30121643242E+02 -0.39991921166E+02 -0.63662118914E+02  0.80990941066E+02  0.00000000000E+00 0. -1.
<mgrwt>
<rscale>  1 0.30000000E+03</rscale>
<asrwt>0</asrwt>
<pdfrwt beam="1">  1       21 0.33976978E-01 0.30000000E+03</pdfrwt>
<pdfrwt beam="2">0</pdfrwt>
<totfact> 0.84548866E+02</totfact>
</mgrwt>
</event>
<event>
 6    1  0.1273846E-001  0.3000000E+03  0.7818608E-02  0.1093470E+00
         21   -1    0    0  501  502  0.00000000000E+00  0.00000000000E+00  0.27838142018E+01  0.27838142018E+01  0.00000000000E+00 0. -1.
         13   -1    0    0    0    0 -0.00000000000E+00 -0.00000000000E+00 -0.10000000000E+04  0.10000000000E+04  0.00000000000E+00 0.  1.
    9000005    2    1    2  501    0 -0.45633090437E+02 -0.69443278129E+01 -0.73991568955E+03  0.74137580361E+03  0.56790761411E+01 0.  0.
         13    1    3    3    0    0 -0.15322151832E+01  0.42646482830E+00 -0.15452317817E+02  0.15533952540E+02  0.00000000000E+00 0.  1.
          3    1    3    3  501    0 -0.44100875253E+02 -0.73707926412E+01 -0.72446337173E+03  0.72584185107E+03  0.00000000000E+00 0.  1.
         -1    1    1    2    0  502  0.45633090437E+02  0.69443278129E+01 -0.25730049625E+03  0.26140801059E+03  0.00000000000E+00 0. -1.
<mgrwt>
<rscale>  1 0.30000000E+03</rscale>
<asrwt>0</asrwt>
<pdfrwt beam="1">  1       21 0.10122982E-01 0.30000000E+03</pdfrwt>
<pdfrwt beam="2">0</pdfrwt>
<totfact> 0.84172656E+03</totfact>
</mgrwt>
</event>
<event>
 6    1  0.1273846E-001  0.3000000E+03  0.7818608E-02  0.1093470E+00
         21   -1    0    0  501  502  0.00000000000E+00  0.00000000000E+00  0.17410519531E+01  0.17410519531E+01  0.00000000000E+00 0. -1.
         13   -1    0    0    0    0 -0.00000000000E+00 -0.00000000000E+00 -0.10000000000E+04  0.10000000000E+04  0.00000000000E+00 0.  1.
    9000005    2    1    2  501    0 -0.14036955771E+02  0.27818733673E+02 -0.83186970851E+03  0.83245934265E+03  0.32291114316E+01 0.  0.
         13    1    3    3    0    0 -0.13305754932E+01  0.12969527730E+01 -0.63079897843E+02  0.63107258136E+02  0.00000000000E+00 0.  1.
          1    1    3    3  501    0 -0.12706380278E+02  0.26521780900E+02 -0.76878981067E+03  0.76935208451E+03  0.00000000000E+00 0.  1.
         -3    1    1    2    0  502  0.14036955771E+02 -0.27818733673E+02 -0.16638923954E+03  0.16928170930E+03  0.00000000000E+00 0. -1.
<mgrwt>
<rscale>  1 0.30000000E+03</rscale>
<asrwt>0</asrwt>
<pdfrwt beam="1">  1       21 0.63311114E-02 0.30000000E+03</pdfrwt>
<pdfrwt beam="2">0</pdfrwt>
<totfact> 0.19205169E+04</totfact>
</mgrwt>
</event>
<event>
 6    1  0.1273846E-001  0.3000000E+03  0.7818608E-02  0.1093470E+00
         21   -1    0    0  501  502  0.00000000000E+00  0.00000000000E+00  0.15037770332E+01  0.15037770332E+01  0.00000000000E+00 0. -1.
         13   -1    0    0    0    0 -0.00000000000E+00 -0.00000000000E+00 -0.10000000000E+04  0.10000000000E+04  0.00000000000E+00 0.  1.
    9000005    2    1    2  501    0 -0.15589336266E+02 -0.25654999664E+02 -0.81558766317E+03  0.81614804429E+03  0.36314561826E+01 0.  0.
         13    1    3    3    0    0 -0.25221736638E+01 -0.50900945452E+01 -0.19361777443E+03  0.19370109189E+03  0.00000000000E+00 0.  1.
          3    1    3    3  501    0 -0.13067162602E+02 -0.20564905119E+02 -0.62196988873E+03  0.62244695240E+03  0.00000000000E+00 0.  1.
         -1    1    1    2    0  502  0.15589336266E+02  0.25654999664E+02 -0.18290855980E+03  0.18535573274E+03  0.00000000000E+00 0. -1.
<mgrwt>
<rscale>  1 0.30000000E+03</rscale>
<asrwt>0</asrwt>
<pdfrwt beam="1">  1       21 0.54682917E-02 0.30000000E+03</pdfrwt>
<pdfrwt beam="2">0</pdfrwt>
<totfact> 0.24717940E+04</totfact>
</mgrwt>
</event>
<event>
 6    1  0.1273846E-001  0.3000000E+03  0.7818608E-02  0.1093470E+00
         21   -1    0    0  501  502  0.00000000000E+00  0.00000000000E+00  0.36690577669E+01  0.36690577669E+01  0.00000000000E+00 0. -1.
         13   -1    0    0    0    0 -0.00000000000E+00 -0.00000000000E+00 -0.10000000000E+04  0.10000000000E+04  0.00000000000E+00 0.  1.
    9000005    2    1    2  501    0 -0.39963061052E+02 -0.32142308945E+02 -0.76491894382E+03  0.76664229286E+03  0.30397883113E+01 0.  0.
         13    1    3    3    0    0 -0.24054561686E+02 -0.18991498770E+02 -0.43497629648E+03  0.43605467257E+03  0.00000000000E+00 0.  1.
          3    1    3    3  501    0 -0.15908499366E+02 -0.13150810176E+02 -0.32994264734E+03  0.33058762029E+03  0.00000000000E+00 0.  1.
         -3    1    1    2    0  502  0.39963061052E+02  0.32142308945E+02 -0.23141199841E+03  0.23702676491E+03  0.00000000000E+00 0. -1.
<mgrwt>
<rscale>  1 0.30000000E+03</rscale>
<asrwt>0</asrwt>
<pdfrwt beam="1">  1       21 0.13342056E-01 0.30000000E+03</pdfrwt>
<pdfrwt beam="2">0</pdfrwt>
<totfact> 0.51081708E+03</totfact>
</mgrwt>
</event>
<event>
 6    1  0.1273846E-001  0.3000000E+03  0.7818608E-02  0.1093470E+00
         21   -1    0    0  501  502  0.00000000000E+00  0.00000000000E+00  0.49960958096E+01  0.49960958096E+01  0.00000000000E+00 0. -1.
         13   -1    0    0    0    0 -0.00000000000E+00 -0.00000000000E+00 -0.10000000000E+04  0.10000000000E+04  0.00000000000E+00 0.  1.
    9000005    2    1    2  501    0 -0.55520552330E+02  0.13467300910E+02 -0.79319585637E+03  0.79525723892E+03  0.32418459245E+01 0.  0.
         13    1    3    3    0    0 -0.20548536148E+01  0.11541934565E+01 -0.32077602682E+02  0.32164066592E+02  0.00000000000E+00 0.  1.
          3    1    3    3  501    0 -0.53465698715E+02  0.12313107454E+02 -0.76111825369E+03  0.76309317233E+03  0.00000000000E+00 0.  1.
         -1    1    1    2    0  502  0.55520552330E+02 -0.13467300910E+02 -0.20180804782E+03  0.20973885689E+03  0.00000000000E+00 0. -1.
<mgrwt>
<rscale>  1 0.30000000E+03</rscale>
<asrwt>0</asrwt>
<pdfrwt beam="1">  1       21 0.18167659E-01 0.30000000E+03</pdfrwt>
<pdfrwt beam="2">0</pdfrwt>
<totfact> 0.28788161E+03</totfact>
</mgrwt>
</event>
<event>
 6    1  0.1273846E-001  0.3000000E+03  0.7818608E-02  0.1093470E+00
         21   -1    0    0  501  502  0.00000000000E+00  0.00000000000E+00  0.25790619883E+01  0.25790619883E+01  0.00000000000E+00 0. -1.
         13   -1    0    0    0    0 -0.00000000000E+00 -0.00000000000E+00 -0.10000000000E+04  0.10000000000E+04  0.00000000000E+00 0.  1.
    9000005    2    1    2  501    0 -0.39053457593E+02 -0.32243391702E+02 -0.52898425000E+03  0.53141270120E+03  0.32114475668E+01 0.  0.
         13    1    3    3    0    0 -0.37443806355E+02 -0.31254945324E+02 -0.51426489008E+03  0.51657263517E+03  0.00000000000E+00 0.  1.
          1    1    3    3  501    0 -0.16096512384E+01 -0.98844637706E+00 -0.14719359920E+02  0.14840066031E+02  0.00000000000E+00 0.  1.
         -3    1    1    2    0  502  0.39053457593E+02  0.32243391702E+02 -0.46843668801E+03  0.47116636079E+03  0.00000000000E+00 0. -1.
<mgrwt>
<rscale>  1 0.30000000E+03</rscale>
<asrwt>0</asrwt>
<pdfrwt beam="1">  1       21 0.93784270E-02 0.30000000E+03</pdfrwt>
<pdfrwt beam="2">0</pdfrwt>
<totfact> 0.96463731E+03</totfact>
</mgrwt>
</event>
<event>
 6    1  0.1273846E-001  0.3000000E+03  0.7818608E-02  0.1093470E+00
         21   -1    0    0  501  502  0.00000000000E+00  0.00000000000E+00  0.20201401003E+01  0.20201401003E+01  0.00000000000E+00 0. -1.
         13   -1    0    0    0    0 -0.00000000000E+00 -0.00000000000E+00 -0.10000000000E+04  0.10000000000E+04  0.00000000000E+00 0.  1.
    9000005    2    1    2  501    0  0.45595068298E+01 -0.41206381330E+02 -0.69175560399E+03  0.69300226056E+03  0.27500058656E+01 0.  0.
         13    1    3    3    0    0  0.92169456293E+00 -0.34688018705E+01 -0.69790206920E+02  0.69882437630E+02  0.00000000000E+00 0.  1.
          3    1    3    3  501    0  0.36378122669E+01 -0.37737579460E+02 -0.62196539707E+03  0.62311982293E+03  0.00000000000E+00 0.  1.
         -3    1    1    2    0  502 -0.45595068298E+01  0.41206381330E+02 -0.30622425591E+03  0.30901787954E+03  0.00000000000E+00 0. -1.
<mgrwt>
<rscale>  1 0.30000000E+03</rscale>
<asrwt>0</asrwt>
<pdfrwt beam="1">  1       21 0.73459795E-02 0.30000000E+03</pdfrwt>
<pdfrwt beam="2">0</pdfrwt>
<totfact> 0.14833301E+04</totfact>
</mgrwt>
</event>
<event>
 6    1  0.1273846E-001  0.3000000E+03  0.7818608E-02  0.1093470E+00
         21   -1    0    0  501  502  0.00000000000E+00  0.00000000000E+00  0.12536349932E+01  0.12536349932E+01  0.00000000000E+00 0. -1.
         13   -1    0    0    0    0 -0.00000000000E+00 -0.00000000000E+00 -0.10000000000E+04  0.10000000000E+04  0.00000000000E+00 0.  1.
    9000005    2    1    2  501    0 -0.34082078267E+02  0.62089692753E+01 -0.53538648043E+03  0.53660051492E+03  0.10064284727E+02 0.  0.
         13    1    3    3    0    0 -0.20100646271E+02  0.34304921349E+01 -0.38510566319E+03  0.38564514268E+03  0.00000000000E+00 0.  1.
          1    1    3    3  501    0 -0.13981431997E+02  0.27784771404E+01 -0.15028081725E+03  0.15095537224E+03  0.00000000000E+00 0.  1.
         -1    1    1    2    0  502  0.34082078267E+02 -0.62089692753E+01 -0.46335988458E+03  0.46465312007E+03  0.00000000000E+00 0. -1.
<mgrwt>
<rscale>  1 0.30000000E+03</rscale>
<asrwt>0</asrwt>
<pdfrwt beam="1">  1       21 0.45586823E-02 0.30000000E+03</pdfrwt>
<pdfrwt beam="2">0</pdfrwt>
<totfact> 0.33708496E+04</totfact>
</mgrwt>
</event>
<event>
 6    1  0.1273846E-001  0.3000000E+03  0.7818608E-02  0.1093470E+00
         21   -1    0    0  501  502  0.00000000000E+00  0.00000000000E+00  0.14740746200E+01  0.14740746200E+01  0.00000000000E+00 0. -1.
         13   -1    0    0    0    0 -0.00000000000E+00 -0.00000000000E+00 -0.10000000000E+04  0.10000000000E+04  0.00000000000E+00 0.  1.
    9000005    2    1    2  501    0 -0.25959767916E+02  0.22874441248E+02 -0.71215536780E+03  0.71302087935E+03  0.60296675090E+01 0.  0.
         13    1    3    3    0    0 -0.99840477734E+01  0.50772550071E+01 -0.23260579074E+03  0.23287531775E+03  0.00000000000E+00 0.  1.
          1    1    3    3  501    0 -0.15975720143E+02  0.17797186241E+02 -0.47954957706E+03  0.48014556160E+03  0.00000000000E+00 0.  1.
         -1    1    1    2    0  502  0.25959767916E+02 -0.22874441248E+02 -0.28637055758E+03  0.28845319527E+03  0.00000000000E+00 0. -1.
<mgrwt>
<rscale>  1 0.30000000E+03</rscale>
<asrwt>0</asrwt>
<pdfrwt beam="1">  1       21 0.53602826E-02 0.30000000E+03</pdfrwt>
<pdfrwt beam="2">0</pdfrwt>
<totfact> 0.25577112E+04</totfact>
</mgrwt>
</event>
<event>
 6    1  0.1273846E-001  0.3000000E+03  0.7818608E-02  0.1093470E+00
         21   -1    0    0  501  502  0.00000000000E+00  0.00000000000E+00  0.25643829995E+01  0.25643829995E+01  0.00000000000E+00 0. -1.
         13   -1    0    0    0    0 -0.00000000000E+00 -0.00000000000E+00 -0.10000000000E+04  0.10000000000E+04  0.00000000000E+00 0.  1.
    9000005    2    1    2  501    0  0.37285960469E+02 -0.15225108943E+02 -0.19619905162E+03  0.20031624153E+03  0.32375875605E+01 0.  0.
         13    1    3    3    0    0  0.34404688849E+00  0.16919070982E+00 -0.18936066120E+01  0.19320299580E+01  0.00000000000E+00 0.  1.
          3    1    3    3  501    0  0.36941913581E+02 -0.15394299653E+02 -0.19430544501E+03  0.19838421157E+03  0.00000000000E+00 0.  1.
         -3    1    1    2    0  502 -0.37285960469E+02  0.15225108943E+02 -0.80123656538E+03  0.80224814147E+03  0.00000000000E+00 0. -1.
<mgrwt>
<rscale>  1 0.30000000E+03</rscale>
<asrwt>0</asrwt>
<pdfrwt beam="1">  1       21 0.93250488E-02 0.30000000E+03</pdfrwt>
<pdfrwt beam="2">0</pdfrwt>
<totfact> 0.97447871E+03</totfact>
</mgrwt>
</event>
<event>
 6    1  0.1273846E-001  0.3000000E+03  0.7818608E-02  0.1093470E+00
         21   -1    0    0  501  502  0.00000000000E+00  0.00000000000E+00  0.11277751546E+01  0.11277751546E+01  0.00000000000E+00 0. -1.
         13   -1    0    0    0    0 -0.00000000000E+00 -0.00000000000E+00 -0.10000000000E+04  0.10000000000E+04  0.00000000000E+00 0.  1.
    9000005    2    1    2  501    0 -0.11943073803E+02  0.28268074955E+02 -0.70109741871E+03  0.70177588149E+03  0.31743095452E+01 0.  0.
         13    1    3    3    0    0 -0.93196298848E+00  0.13126640946E+01 -0.25030985376E+02  0.25082700631E+02  0.00000000000E+00 0.  1.
          3    1    3    3  501    0 -0.11011110814E+02  0.26955410861E+02 -0.67606643334E+03  0.67669318086E+03  0.00000000000E+00 0.  1.
         -3    1    1    2    0  502  0.11943073803E+02 -0.28268074955E+02 -0.29777480613E+03  0.29935189366E+03  0.00000000000E+00 0. -1.
<mgrwt>
<rscale>  1 0.30000000E+03</rscale>
<asrwt>0</asrwt>
<pdfrwt beam="1">  1       21 0.41010092E-02 0.30000000E+03</pdfrwt>
<pdfrwt beam="2">0</pdfrwt>
<totfact> 0.40316900E+04</totfact>
</mgrwt>
</event>
<event>
 6    1  0.1273846E-001  0.3000000E+03  0.7818608E-02  0.1093470E+00
         21   -1    0    0  501  502  0.00000000000E+00  0.00000000000E+00  0.17116489487E+01  0.17116489487E+01  0.00000000000E+00 0. -1.
         13   -1    0    0    0    0 -0.00000000000E+00 -0.00000000000E+00 -0.10000000000E+04  0.10000000000E+04  0.00000000000E+00 0.  1.
    9000005    2    1    2  501    0 -0.23287417313E+02  0.26290642402E+02 -0.76299063441E+03  0.76380722036E+03  0.36414284884E+01 0.  0.
         13    1    3    3    0    0 -0.11577088122E+02  0.15470551235E+02 -0.39920979438E+03  0.39967715328E+03  0.00000000000E+00 0.  1.
          1    1    3    3  501    0 -0.11710329191E+02  0.10820091168E+02 -0.36378084003E+03  0.36413006709E+03  0.00000000000E+00 0.  1.
         -3    1    1    2    0  502  0.23287417313E+02 -0.26290642402E+02 -0.23529771664E+03  0.23790442859E+03  0.00000000000E+00 0. -1.
<mgrwt>
<rscale>  1 0.30000000E+03</rscale>
<asrwt>0</asrwt>
<pdfrwt beam="1">  1       21 0.62241911E-02 0.30000000E+03</pdfrwt>
<pdfrwt beam="2">0</pdfrwt>
<totfact> 0.19778855E+04</totfact>
</mgrwt>
</event>
<event>
 6    1  0.1273846E-001  0.3000000E+03  0.7818608E-02  0.1093470E+00
         21   -1    0    0  501  502  0.00000000000E+00  0.00000000000E+00  0.66392334890E+01  0.66392334890E+01  0.00000000000E+00 0. -1.
         13   -1    0    0    0    0 -0.00000000000E+00 -0.00000000000E+00 -0.10000000000E+04  0.10000000000E+04  0.00000000000E+00 0.  1.
    9000005    2    1    2  501    0  0.33124176237E+02 -0.56449421085E+02 -0.79627130219E+03  0.79896640151E+03  0.39466279995E+01 0.  0.
         13    1    3    3    0    0  0.13080899283E+02 -0.18925514858E+02 -0.26977660658E+03  0.27075579864E+03  0.00000000000E+00 0.  1.
          3    1    3    3  501    0  0.20043276954E+02 -0.37523906227E+02 -0.52649469560E+03  0.52821060288E+03  0.00000000000E+00 0.  1.
         -1    1    1    2    0  502 -0.33124176237E+02  0.56449421085E+02 -0.19708946433E+03  0.20767283197E+03  0.00000000000E+00 0. -1.
<mgrwt>
<rscale>  1 0.30000000E+03</rscale>
<asrwt>0</asrwt>
<pdfrwt beam="1">  1       21 0.24142718E-01 0.30000000E+03</pdfrwt>
<pdfrwt beam="2">0</pdfrwt>
<totfact> 0.16695303E+03</totfact>
</mgrwt>
</event>
<event>
 6    1  0.1273846E-001  0.3000000E+03  0.7818608E-02  0.1093470E+00
         21   -1    0    0  501  502  0.00000000000E+00  0.00000000000E+00  0.39098263188E+01  0.39098263188E+01  0.00000000000E+00 0. -1.
         13   -1    0    0    0    0 -0.00000000000E+00 -0.00000000000E+00 -0.10000000000E+04  0.10000000000E+04  0.00000000000E+00 0.  1.
    9000005    2    1    2  501    0  0.35462788518E+02 -0.17071308826E+02 -0.88794670504E+03  0.88882703540E+03  0.38870198351E+01 0.  0.
         13    1    3    3    0    0  0.28642310206E+02 -0.14994696103E+02 -0.74929325866E+03  0.74999040682E+03  0.00000000000E+00 0.  1.
          1    1    3    3  501    0  0.68204783126E+01 -0.20766127237E+01 -0.13865344637E+03  0.13883662858E+03  0.00000000000E+00 0.  1.
         -1    1    1    2    0  502 -0.35462788518E+02  0.17071308826E+02 -0.10814346865E+03  0.11508279092E+03  0.00000000000E+00 0. -1.
<mgrwt>
<rscale>  1 0.30000000E+03</rscale>
<asrwt>0</asrwt>
<pdfrwt beam="1">  1       21 0.14217580E-01 0.30000000E+03</pdfrwt>
<pdfrwt beam="2">0</pdfrwt>
<totfact> 0.45459264E+03</totfact>
</mgrwt>
</event>
<event>
 6    1  0.1273846E-001  0.3000000E+03  0.7818608E-02  0.1093470E+00
         21   -1    0    0  501  502  0.00000000000E+00  0.00000000000E+00  0.13478450609E+01  0.13478450609E+01  0.00000000000E+00 0. -1.
         13   -1    0    0    0    0 -0.00000000000E+00 -0.00000000000E+00 -0.10000000000E+04  0.10000000000E+04  0.00000000000E+00 0.  1.
    9000005    2    1    2  501    0  0.23603971234E+02  0.18682985080E+02 -0.21524454900E+03  0.21736208088E+03  0.31395767732E+01 0.  0.
         13    1    3    3    0    0  0.19426634998E+02  0.16483640876E+02 -0.17596466668E+03  0.17779951767E+03  0.00000000000E+00 0.  1.
          3    1    3    3  501    0  0.41773362351E+01  0.21993442037E+01 -0.39279882321E+02  0.39562563214E+02  0.00000000000E+00 0.  1.
         -3    1    1    2    0  502 -0.23603971234E+02 -0.18682985080E+02 -0.78340760594E+03  0.78398576418E+03  0.00000000000E+00 0. -1.
<mgrwt>
<rscale>  1 0.30000000E+03</rscale>
<asrwt>0</asrwt>
<pdfrwt beam="1">  1       21 0.49012651E-02 0.30000000E+03</pdfrwt>
<pdfrwt beam="2">0</pdfrwt>
<totfact> 0.29800369E+04</totfact>
</mgrwt>
</event>
<event>
 6    1  0.1273846E-001  0.3000000E+03  0.7818608E-02  0.1093470E+00
         21   -1    0    0  501  502  0.00000000000E+00  0.00000000000E+00  0.23951732976E+01  0.23951732976E+01  0.00000000000E+00 0. -1.
         13   -1    0    0    0    0 -0.00000000000E+00 -0.00000000000E+00 -0.10000000000E+04  0.10000000000E+04  0.00000000000E+00 0.  1.
    9000005    2    1    2  501    0 -0.22401777846E+02  0.28706141955E+02 -0.83301284077E+03  0.83382351473E+03  0.50377181823E+01 0.  0.
         13    1    3    3    0    0 -0.82469280586E+01  0.73653507031E+01 -0.27941410539E+03  0.27963279941E+03  0.00000000000E+00 0.  1.
          1    1    3    3  501    0 -0.14154849787E+02  0.21340791252E+02 -0.55359873537E+03  0.55419071532E+03  0.00000000000E+00 0.  1.
         -3    1    1    2    0  502  0.22401777846E+02 -0.28706141955E+02 -0.16459198594E+03  0.16857165856E+03  0.00000000000E+00 0. -1.
<mgrwt>
<rscale>  1 0.30000000E+03</rscale>
<asrwt>0</asrwt>
<pdfrwt beam="1">  1       21 0.87097394E-02 0.30000000E+03</pdfrwt>
<pdfrwt beam="2">0</pdfrwt>
<totfact> 0.10997777E+04</totfact>
</mgrwt>
</event>
<event>
 6    1  0.1273846E-001  0.3000000E+03  0.7818608E-02  0.1093470E+00
         21   -1    0    0  501  502  0.00000000000E+00  0.00000000000E+00  0.26903492952E+01  0.26903492952E+01  0.00000000000E+00 0. -1.
         13   -1    0    0    0    0 -0.00000000000E+00 -0.00000000000E+00 -0.10000000000E+04  0.10000000000E+04  0.00000000000E+00 0.  1.
    9000005    2    1    2  501    0  0.39647240193E+02 -0.26877826660E+02 -0.30830307040E+03  0.31202082707E+03  0.34484908976E+01 0.  0.
         13    1    3    3    0    0  0.52654087708E+00 -0.11509256916E+00 -0.60286067975E+01  0.60526516101E+01  0.00000000000E+00 0.  1.
          3    1    3    3  501    0  0.39120699316E+02 -0.26762734091E+02 -0.30227446360E+03  0.30596817546E+03  0.00000000000E+00 0.  1.
         -3    1    1    2    0  502 -0.39647240193E+02  0.26877826660E+02 -0.68900658031E+03  0.69066952222E+03  0.00000000000E+00 0. -1.
<mgrwt>
<rscale>  1 0.30000000E+03</rscale>
<asrwt>0</asrwt>
<pdfrwt beam="1">  1       21 0.97831090E-02 0.30000000E+03</pdfrwt>
<pdfrwt beam="2">0</pdfrwt>
<totfact> 0.89467511E+03</totfact>
</mgrwt>
</event>
<event>
 6    1  0.1273846E-001  0.3000000E+03  0.7818608E-02  0.1093470E+00
         21   -1    0    0  501  502  0.00000000000E+00  0.00000000000E+00  0.37766172763E+01  0.37766172763E+01  0.00000000000E+00 0. -1.
         13   -1    0    0    0    0 -0.00000000000E+00 -0.00000000000E+00 -0.10000000000E+04  0.10000000000E+04  0.00000000000E+00 0.  1.
    9000005    2    1    2  501    0 -0.37985363020E+02 -0.36696667199E+02 -0.24252918365E+03  0.24823411092E+03  0.31993307371E+01 0.  0.
         13    1    3    3    0    0 -0.20270348609E+02 -0.20832362975E+02 -0.13952761102E+03  0.14252308100E+03  0.00000000000E+00 0.  1.
          3    1    3    3  501    0 -0.17715014410E+02 -0.15864304224E+02 -0.10300157262E+03  0.10571102992E+03  0.00000000000E+00 0.  1.
         -3    1    1    2    0  502  0.37985363020E+02  0.36696667199E+02 -0.75369419908E+03  0.75554250636E+03  0.00000000000E+00 0. -1.
<mgrwt>
<rscale>  1 0.30000000E+03</rscale>
<asrwt>0</asrwt>
<pdfrwt beam="1">  1       21 0.13733183E-01 0.30000000E+03</pdfrwt>
<pdfrwt beam="2">0</pdfrwt>
<totfact> 0.48448256E+03</totfact>
</mgrwt>
</event>
<event>
 6    1  0.1273846E-001  0.3000000E+03  0.7818608E-02  0.1093470E+00
         21   -1    0    0  501  502  0.00000000000E+00  0.00000000000E+00  0.13923085233E+01  0.13923085233E+01  0.00000000000E+00 0. -1.
         13   -1    0    0    0    0 -0.00000000000E+00 -0.00000000000E+00 -0.10000000000E+04  0.10000000000E+04  0.00000000000E+00 0.  1.
    9000005    2    1    2  501    0 -0.28521308241E+02  0.16045100933E+02 -0.73861977590E+03  0.73935294787E+03  0.35634084784E+01 0.  0.
         13    1    3    3    0    0 -0.26974950454E+02  0.14700681536E+02 -0.70675705912E+03  0.70742441194E+03  0.00000000000E+00 0.  1.
          3    1    3    3  501    0 -0.15463577868E+01  0.13444193971E+01 -0.31862716781E+02  0.31928535929E+02  0.00000000000E+00 0.  1.
         -1    1    1    2    0  502  0.28521308241E+02 -0.16045100933E+02 -0.25998791558E+03  0.26203936066E+03  0.00000000000E+00 0. -1.
<mgrwt>
<rscale>  1 0.30000000E+03</rscale>
<asrwt>0</asrwt>
<pdfrwt beam="1">  1       21 0.50629508E-02 0.30000000E+03</pdfrwt>
<pdfrwt beam="2">0</pdfrwt>
<totfact> 0.28196604E+04</totfact>
</mgrwt>
</event>
<event>
 6    1  0.1273846E-001  0.3000000E+03  0.7818608E-02  0.1093470E+00
         21   -1    0    0  501  502  0.00000000000E+00  0.00000000000E+00  0.27662797988E+01  0.27662797988E+01  0.00000000000E+00 0. -1.
         13   -1    0    0    0    0 -0.00000000000E+00 -0.00000000000E+00 -0.10000000000E+04  0.10000000000E+04  0.00000000000E+00 0.  1.
    9000005    2    1    2  501    0 -0.21379759693E+02 -0.32681566737E+02 -0.83419139228E+03  0.83511193413E+03  0.33888990809E+01 0.  0.
         13    1    3    3    0    0 -0.47773691268E+01 -0.74607856811E+01 -0.16070295096E+03  0.16094696339E+03  0.00000000000E+00 0.  1.
          3    1    3    3  501    0 -0.16602390566E+02 -0.25220781056E+02 -0.67348844133E+03  0.67416497074E+03  0.00000000000E+00 0.  1.
         -3    1    1    2    0  502  0.21379759693E+02  0.32681566737E+02 -0.16304232792E+03  0.16765434567E+03  0.00000000000E+00 0. -1.
<mgrwt>
<rscale>  1 0.30000000E+03</rscale>
<asrwt>0</asrwt>
<pdfrwt beam="1">  1       21 0.10059220E-01 0.30000000E+03</pdfrwt>
<pdfrwt beam="2">0</pdfrwt>
<totfact> 0.85128907E+03</totfact>
</mgrwt>
</event>
<event>
 6    1  0.1273846E-001  0.3000000E+03  0.7818608E-02  0.1093470E+00
         21   -1    0    0  501  502  0.00000000000E+00  0.00000000000E+00  0.31257614084E+01  0.31257614084E+01  0.00000000000E+00 0. -1.
         13   -1    0    0    0    0 -0.00000000000E+00 -0.00000000000E+00 -0.10000000000E+04  0.10000000000E+04  0.00000000000E+00 0.  1.
    9000005    2    1    2  501    0  0.55177412828E+02  0.40062999549E+01 -0.56653120636E+03  0.56924130362E+03  0.41781137073E+01 0.  0.
         13    1    3    3    0    0  0.26268624822E+02  0.22638501564E+01 -0.29114912846E+03  0.29234052178E+03  0.00000000000E+00 0.  1.
          1    1    3    3  501    0  0.28908788006E+02  0.17424497985E+01 -0.27538207790E+03  0.27690078184E+03  0.00000000000E+00 0.  1.
         -3    1    1    2    0  502 -0.55177412828E+02 -0.40062999549E+01 -0.43034303223E+03  0.43388445779E+03  0.00000000000E+00 0. -1.
<mgrwt>
<rscale>  1 0.30000000E+03</rscale>
<asrwt>0</asrwt>
<pdfrwt beam="1">  1       21 0.11366429E-01 0.30000000E+03</pdfrwt>
<pdfrwt beam="2">0</pdfrwt>
<totfact> 0.68362453E+03</totfact>
</mgrwt>
</event>
<event>
 6    1  0.1273846E-001  0.3000000E+03  0.7818608E-02  0.1093470E+00
         21   -1    0    0  501  502  0.00000000000E+00  0.00000000000E+00  0.50717110890E+01  0.50717110890E+01  0.00000000000E+00 0. -1.
         13   -1    0    0    0    0 -0.00000000000E+00 -0.00000000000E+00 -0.10000000000E+04  0.10000000000E+04  0.00000000000E+00 0.  1.
    9000005    2    1    2  501    0  0.37801158782E+02 -0.58422549862E+02 -0.60356291003E+03  0.60756827497E+03  0.29833625296E+01 0.  0.
         13    1    3    3    0    0  0.21118900866E+02 -0.30825454509E+02 -0.31422751881E+03  0.31644138509E+03  0.00000000000E+00 0.  1.
          3    1    3    3  501    0  0.16682257916E+02 -0.27597095352E+02 -0.28933539122E+03  0.29112688988E+03  0.00000000000E+00 0.  1.
         -3    1    1    2    0  502 -0.37801158782E+02  0.58422549862E+02 -0.39136537888E+03  0.39750343612E+03  0.00000000000E+00 0. -1.
<mgrwt>
<rscale>  1 0.30000000E+03</rscale>
<asrwt>0</asrwt>
<pdfrwt beam="1">  1       21 0.18442625E-01 0.30000000E+03</pdfrwt>
<pdfrwt beam="2">0</pdfrwt>
<totfact> 0.27983641E+03</totfact>
</mgrwt>
</event>
<event>
 6    1  0.1273846E-001  0.3000000E+03  0.7818608E-02  0.1093470E+00
         21   -1    0    0  501  502  0.00000000000E+00  0.00000000000E+00  0.56878148629E+01  0.56878148629E+01  0.00000000000E+00 0. -1.
         13   -1    0    0    0    0 -0.00000000000E+00 -0.00000000000E+00 -0.10000000000E+04  0.10000000000E+04  0.00000000000E+00 0.  1.
    9000005    2    1    2  501    0 -0.38234301995E+02 -0.60226239441E+02 -0.33505470832E+03  0.34258187875E+03  0.34094450599E+01 0.  0.
         13    1    3    3    0    0 -0.16338069199E+02 -0.28908071505E+02 -0.15566829887E+03  0.15917043814E+03  0.00000000000E+00 0.  1.
          3    1    3    3  501    0 -0.21896232796E+02 -0.31318167936E+02 -0.17938640945E+03  0.18341144061E+03  0.00000000000E+00 0.  1.
         -1    1    1    2    0  502  0.38234301995E+02  0.60226239441E+02 -0.65925747681E+03  0.66310593611E+03  0.00000000000E+00 0. -1.
<mgrwt>
<rscale>  1 0.30000000E+03</rscale>
<asrwt>0</asrwt>
<pdfrwt beam="1">  1       21 0.20683007E-01 0.30000000E+03</pdfrwt>
<pdfrwt beam="2">0</pdfrwt>
<totfact> 0.22500354E+03</totfact>
</mgrwt>
</event>
<event>
 6    1  0.1273846E-001  0.3000000E+03  0.7818608E-02  0.1093470E+00
         21   -1    0    0  501  502  0.00000000000E+00  0.00000000000E+00  0.10758950203E+01  0.10758950203E+01  0.00000000000E+00 0. -1.
         13   -1    0    0    0    0 -0.00000000000E+00 -0.00000000000E+00 -0.10000000000E+04  0.10000000000E+04  0.00000000000E+00 0.  1.
    9000005    2    1    2  501    0 -0.12926122506E+02  0.29930436238E+02 -0.54112042154E+03  0.54211279386E+03  0.34720313639E+01 0.  0.
         13    1    3    3    0    0 -0.53534870874E+01  0.10253679321E+02 -0.21595675562E+03  0.21626631282E+03  0.00000000000E+00 0.  1.
          3    1    3    3  501    0 -0.75726354189E+01  0.19676756917E+02 -0.32516366592E+03  0.32584648104E+03  0.00000000000E+00 0.  1.
         -1    1    1    2    0  502  0.12926122506E+02 -0.29930436238E+02 -0.45780368344E+03  0.45896310116E+03  0.00000000000E+00 0. -1.
<mgrwt>
<rscale>  1 0.30000000E+03</rscale>
<asrwt>0</asrwt>
<pdfrwt beam="1">  1       21 0.39123538E-02 0.30000000E+03</pdfrwt>
<pdfrwt beam="2">0</pdfrwt>
<totfact> 0.43644862E+04</totfact>
</mgrwt>
</event>
<event>
 6    1  0.1273846E-001  0.3000000E+03  0.7818608E-02  0.1093470E+00
         21   -1    0    0  501  502  0.00000000000E+00  0.00000000000E+00  0.18756506101E+01  0.18756506101E+01  0.00000000000E+00 0. -1.
         13   -1    0    0    0    0 -0.00000000000E+00 -0.00000000000E+00 -0.10000000000E+04  0.10000000000E+04  0.00000000000E+00 0.  1.
    9000005    2    1    2  501    0 -0.18641810977E+02  0.32583794911E+02 -0.74837720778E+03  0.74932297185E+03  0.26926210646E+01 0.  0.
         13    1    3    3    0    0 -0.37857928780E+01  0.51084497024E+01 -0.11368448561E+03  0.11386215681E+03  0.00000000000E+00 0.  1.
          3    1    3    3  501    0 -0.14856018099E+02  0.27475345208E+02 -0.63469272217E+03  0.63546081503E+03  0.00000000000E+00 0.  1.
         -3    1    1    2    0  502  0.18641810977E+02 -0.32583794911E+02 -0.24974714161E+03  0.25255267876E+03  0.00000000000E+00 0. -1.
<mgrwt>
<rscale>  1 0.30000000E+03</rscale>
<asrwt>0</asrwt>
<pdfrwt beam="1">  1       21 0.68205621E-02 0.30000000E+03</pdfrwt>
<pdfrwt beam="2">0</pdfrwt>
<totfact> 0.16880451E+04</totfact>
</mgrwt>
</event>
<event>
 6    1  0.1373353E-001  0.3000000E+03  0.7818608E-02  0.1093470E+00
         21   -1    0    0  501  502  0.00000000000E+00  0.00000000000E+00  0.12570215000E+01  0.12570215000E+01  0.00000000000E+00 0. -1.
         13   -1    0    0    0    0 -0.00000000000E+00 -0.00000000000E+00 -0.10000000000E+04  0.10000000000E+04  0.00000000000E+00 0.  1.
    9000005    2    1    2  501    0  0.64725292855E+01 -0.33996090917E+02 -0.59486034132E+03  0.59589445238E+03  0.58090327742E+01 0.  0.
         13    1    3    3    0    0  0.97100545224E+00 -0.16673648018E+02 -0.31784060637E+03  0.31827912977E+03  0.00000000000E+00 0.  1.
          3    1    3    3  501    0  0.55015238333E+01 -0.17322442899E+02 -0.27701973495E+03  0.27761532261E+03  0.00000000000E+00 0.  1.
         -1    1    1    2    0  502 -0.64725292855E+01  0.33996090917E+02 -0.40388263718E+03  0.40536256912E+03  0.00000000000E+00 0. -1.
<mgrwt>
<rscale>  1 0.30000000E+03</rscale>
<asrwt>0</asrwt>
<pdfrwt beam="1">  1       21 0.45709969E-02 0.30000000E+03</pdfrwt>
<pdfrwt beam="2">0</pdfrwt>
<totfact> 0.33554390E+04</totfact>
</mgrwt>
</event>
<event>
 6    1  0.1273846E-001  0.3000000E+03  0.7818608E-02  0.1093470E+00
         21   -1    0    0  501  502  0.00000000000E+00  0.00000000000E+00  0.11545307251E+01  0.11545307251E+01  0.00000000000E+00 0. -1.
         13   -1    0    0    0    0 -0.00000000000E+00 -0.00000000000E+00 -0.10000000000E+04  0.10000000000E+04  0.00000000000E+00 0.  1.
    9000005    2    1    2  501    0 -0.30955571958E+02 -0.96401080070E+01 -0.35581870274E+03  0.35731091493E+03  0.36002211260E+01 0.  0.
         13    1    3    3    0    0 -0.25657775627E+01 -0.39820391766E+00 -0.20047996971E+02  0.20215438739E+02  0.00000000000E+00 0.  1.
          3    1    3    3  501    0 -0.28389794395E+02 -0.92419040893E+01 -0.33577070577E+03  0.33709547619E+03  0.00000000000E+00 0.  1.
         -3    1    1    2    0  502  0.30955571958E+02  0.96401080070E+01 -0.64302676654E+03  0.64384361580E+03  0.00000000000E+00 0. -1.
<mgrwt>
<rscale>  1 0.30000000E+03</rscale>
<asrwt>0</asrwt>
<pdfrwt beam="1">  1       21 0.41983024E-02 0.30000000E+03</pdfrwt>
<pdfrwt beam="2">0</pdfrwt>
<totfact> 0.38752904E+04</totfact>
</mgrwt>
</event>
<event>
 6    1  0.1273846E-001  0.3000000E+03  0.7818608E-02  0.1093470E+00
         21   -1    0    0  501  502  0.00000000000E+00  0.00000000000E+00  0.17343180292E+01  0.17343180292E+01  0.00000000000E+00 0. -1.
         13   -1    0    0    0    0 -0.00000000000E+00 -0.00000000000E+00 -0.10000000000E+04  0.10000000000E+04  0.00000000000E+00 0.  1.
    9000005    2    1    2  501    0  0.37570743683E+02  0.15929465924E+02 -0.59574385466E+03  0.59714918468E+03  0.33316262233E+01 0.  0.
         13    1    3    3    0    0  0.22860641001E+02  0.11319113482E+02 -0.38005676689E+03  0.38091190227E+03  0.00000000000E+00 0.  1.
          1    1    3    3  501    0  0.14710102682E+02  0.46103524421E+01 -0.21568708777E+03  0.21623728241E+03  0.00000000000E+00 0.  1.
         -3    1    1    2    0  502 -0.37570743683E+02 -0.15929465924E+02 -0.40252182731E+03  0.40458513335E+03  0.00000000000E+00 0. -1.
<mgrwt>
<rscale>  1 0.30000000E+03</rscale>
<asrwt>0</asrwt>
<pdfrwt beam="1">  1       21 0.63066243E-02 0.30000000E+03</pdfrwt>
<pdfrwt beam="2">0</pdfrwt>
<totfact> 0.19334259E+04</totfact>
</mgrwt>
</event>
<event>
 6    1  0.1273846E-001  0.3000000E+03  0.7818608E-02  0.1093470E+00
         21   -1    0    0  501  502  0.00000000000E+00  0.00000000000E+00  0.28740127137E+01  0.28740127137E+01  0.00000000000E+00 0. -1.
         13   -1    0    0    0    0 -0.00000000000E+00 -0.00000000000E+00 -0.10000000000E+04  0.10000000000E+04  0.00000000000E+00 0.  1.
    9000005    2    1    2  501    0  0.51214710369E+02 -0.78966142215E+01 -0.37239425596E+03  0.37599680050E+03  0.32877097313E+01 0.  0.
         13    1    3    3    0    0  0.45015112459E+02 -0.61362404604E+01 -0.32053453229E+03  0.32373816610E+03  0.00000000000E+00 0.  1.
          1    1    3    3  501    0  0.61995979100E+01 -0.17603737610E+01 -0.51859723672E+02  0.52258634400E+02  0.00000000000E+00 0.  1.
         -1    1    1    2    0  502 -0.51214710369E+02  0.78966142215E+01 -0.62473173132E+03  0.62687721222E+03  0.00000000000E+00 0. -1.
<mgrwt>
<rscale>  1 0.30000000E+03</rscale>
<asrwt>0</asrwt>
<pdfrwt beam="1">  1       21 0.10450977E-01 0.30000000E+03</pdfrwt>
<pdfrwt beam="2">0</pdfrwt>
<totfact> 0.79502716E+03</totfact>
</mgrwt>
</event>
<event>
 6    1  0.1273846E-001  0.3000000E+03  0.7818608E-02  0.1093470E+00
         21   -1    0    0  501  502  0.00000000000E+00  0.00000000000E+00  0.28783292127E+01  0.28783292127E+01  0.00000000000E+00 0. -1.
         13   -1    0    0    0    0 -0.00000000000E+00 -0.00000000000E+00 -0.10000000000E+04  0.10000000000E+04  0.00000000000E+00 0.  1.
    9000005    2    1    2  501    0 -0.30966219608E+02 -0.15241605636E+02 -0.88234141647E+03  0.88302124732E+03  0.29890963704E+01 0.  0.
         13    1    3    3    0    0 -0.19853747597E+02 -0.10019758294E+02 -0.60359823804E+03  0.60400778125E+03  0.00000000000E+00 0.  1.
          3    1    3    3  501    0 -0.11112472011E+02 -0.52218473424E+01 -0.27874317843E+03  0.27901346607E+03  0.00000000000E+00 0.  1.
         -3    1    1    2    0  502  0.30966219608E+02  0.15241605636E+02 -0.11478025432E+03  0.11985708189E+03  0.00000000000E+00 0. -1.
<mgrwt>
<rscale>  1 0.30000000E+03</rscale>
<asrwt>0</asrwt>
<pdfrwt beam="1">  1       21 0.10466674E-01 0.30000000E+03</pdfrwt>
<pdfrwt beam="2">0</pdfrwt>
<totfact> 0.79289182E+03</totfact>
</mgrwt>
</event>
<event>
 6    1  0.1273846E-001  0.3000000E+03  0.7818608E-02  0.1093470E+00
         21   -1    0    0  501  502  0.00000000000E+00  0.00000000000E+00  0.10974305887E+01  0.10974305887E+01  0.00000000000E+00 0. -1.
         13   -1    0    0    0    0 -0.00000000000E+00 -0.00000000000E+00 -0.10000000000E+04  0.10000000000E+04  0.00000000000E+00 0.  1.
    9000005    2    1    2  501    0 -0.24139170375E+02  0.18696782197E+02 -0.69186006514E+03  0.69254051746E+03  0.31223990920E+01 0.  0.
         13    1    3    3    0    0 -0.20302314161E+02  0.14514558491E+02 -0.57961291332E+03  0.58014996824E+03  0.00000000000E+00 0.  1.
          3    1    3    3  501    0 -0.38368562132E+01  0.41822237058E+01 -0.11224715183E+03  0.11239054922E+03  0.00000000000E+00 0.  1.
         -3    1    1    2    0  502  0.24139170375E+02 -0.18696782197E+02 -0.30704250427E+03  0.30855691312E+03  0.00000000000E+00 0. -1.
<mgrwt>
<rscale>  1 0.30000000E+03</rscale>
<asrwt>0</asrwt>
<pdfrwt beam="1">  1       21 0.39906651E-02 0.30000000E+03</pdfrwt>
<pdfrwt beam="2">0</pdfrwt>
<totfact> 0.42213082E+04</totfact>
</mgrwt>
</event>
<event>
 6    1  0.1273846E-001  0.3000000E+03  0.7818608E-02  0.1093470E+00
         21   -1    0    0  501  502  0.00000000000E+00  0.00000000000E+00  0.63752373899E+01  0.63752373899E+01  0.00000000000E+00 0. -1.
         13   -1    0    0    0    0 -0.00000000000E+00 -0.00000000000E+00 -0.10000000000E+04  0.10000000000E+04  0.00000000000E+00 0.  1.
    9000005    2    1    2  501    0 -0.39776656164E+02 -0.69144380198E+02 -0.48064661646E+03  0.48723199500E+03  0.32740420758E+01 0.  0.
         13    1    3    3    0    0 -0.20701476622E+02 -0.35753570126E+02 -0.23896311010E+03  0.24250822028E+03  0.00000000000E+00 0.  1.
          1    1    3    3  501    0 -0.19075179541E+02 -0.33390810072E+02 -0.24168350635E+03  0.24472377472E+03  0.00000000000E+00 0.  1.
         -3    1    1    2    0  502  0.39776656164E+02  0.69144380198E+02 -0.51297814615E+03  0.51914324239E+03  0.00000000000E+00 0. -1.
<mgrwt>
<rscale>  1 0.30000000E+03</rscale>
<asrwt>0</asrwt>
<pdfrwt beam="1">  1       21 0.23182730E-01 0.30000000E+03</pdfrwt>
<pdfrwt beam="2">0</pdfrwt>
<totfact> 0.18063926E+03</totfact>
</mgrwt>
</event>
<event>
 6    1  0.1273846E-001  0.3000000E+03  0.7818608E-02  0.1093470E+00
         21   -1    0    0  501  502  0.00000000000E+00  0.00000000000E+00  0.19246211908E+01  0.19246211908E+01  0.00000000000E+00 0. -1.
         13   -1    0    0    0    0 -0.00000000000E+00 -0.00000000000E+00 -0.10000000000E+04  0.10000000000E+04  0.00000000000E+00 0.  1.
    9000005    2    1    2  501    0 -0.39018930204E+02 -0.21849113341E+01 -0.72577621647E+03  0.72683539101E+03  0.33642943880E+01 0.  0.
         13    1    3    3    0    0 -0.26302395027E+02 -0.63688630675E+00 -0.51229064227E+03  0.51296581150E+03  0.00000000000E+00 0.  1.
          1    1    3    3  501    0 -0.12716535177E+02 -0.15480250274E+01 -0.21348557420E+03  0.21386957951E+03  0.00000000000E+00 0.  1.
         -3    1    1    2    0  502  0.39018930204E+02  0.21849113341E+01 -0.27229916234E+03  0.27508923018E+03  0.00000000000E+00 0. -1.
<mgrwt>
<rscale>  1 0.30000000E+03</rscale>
<asrwt>0</asrwt>
<pdfrwt beam="1">  1       21 0.69986373E-02 0.30000000E+03</pdfrwt>
<pdfrwt beam="2">0</pdfrwt>
<totfact> 0.16140755E+04</totfact>
</mgrwt>
</event>
<event>
 6    1  0.1273846E-001  0.3000000E+03  0.7818608E-02  0.1093470E+00
         21   -1    0    0  501  502  0.00000000000E+00  0.00000000000E+00  0.11560684787E+01  0.11560684787E+01  0.00000000000E+00 0. -1.
         13   -1    0    0    0    0 -0.00000000000E+00 -0.00000000000E+00 -0.10000000000E+04  0.10000000000E+04  0.00000000000E+00 0.  1.
    9000005    2    1    2  501    0 -0.84372682796E+01 -0.31532806175E+02 -0.63652193988E+03  0.63736666375E+03  0.32525002917E+01 0.  0.
         13    1    3    3    0    0 -0.46288603957E+01 -0.16961958536E+02 -0.31114965414E+03  0.31164601980E+03  0.00000000000E+00 0.  1.
          3    1    3    3  501    0 -0.38084078839E+01 -0.14570847639E+02 -0.32537228574E+03  0.32572064396E+03  0.00000000000E+00 0.  1.
         -1    1    1    2    0  502  0.84372682796E+01  0.31532806175E+02 -0.36232199165E+03  0.36378940473E+03  0.00000000000E+00 0. -1.
<mgrwt>
<rscale>  1 0.30000000E+03</rscale>
<asrwt>0</asrwt>
<pdfrwt beam="1">  1       21 0.42038942E-02 0.30000000E+03</pdfrwt>
<pdfrwt beam="2">0</pdfrwt>
<totfact> 0.38665898E+04</totfact>
</mgrwt>
</event>
<event>
 6    1  0.1273846E-001  0.3000000E+03  0.7818608E-02  0.1093470E+00
         21   -1    0    0  501  502  0.00000000000E+00  0.00000000000E+00  0.18114079927E+01  0.18114079927E+01  0.00000000000E+00 0. -1.
         13   -1    0    0    0    0 -0.00000000000E+00 -0.00000000000E+00 -0.10000000000E+04  0.10000000000E+04  0.00000000000E+00 0.  1.
    9000005    2    1    2  501    0 -0.29846594717E+02 -0.16760395400E+02 -0.79630800267E+03  0.79704934505E+03  0.30811126415E+01 0.  0.
         13    1    3    3    0    0 -0.16307269775E+02 -0.75580036537E+01 -0.43180081070E+03  0.43217472230E+03  0.00000000000E+00 0.  1.
          3    1    3    3  501    0 -0.13539324942E+02 -0.92023917466E+01 -0.36450719197E+03  0.36487462275E+03  0.00000000000E+00 0.  1.
         -3    1    1    2    0  502  0.29846594717E+02  0.16760395400E+02 -0.20188058934E+03  0.20476206295E+03  0.00000000000E+00 0. -1.
<mgrwt>
<rscale>  1 0.30000000E+03</rscale>
<asrwt>0</asrwt>
<pdfrwt beam="1">  1       21 0.65869520E-02 0.30000000E+03</pdfrwt>
<pdfrwt beam="2">0</pdfrwt>
<totfact> 0.17932508E+04</totfact>
</mgrwt>
</event>
<event>
 6    1  0.1273846E-001  0.3000000E+03  0.7818608E-02  0.1093470E+00
         21   -1    0    0  501  502  0.00000000000E+00  0.00000000000E+00  0.12681300296E+01  0.12681300296E+01  0.00000000000E+00 0. -1.
         13   -1    0    0    0    0 -0.00000000000E+00 -0.00000000000E+00 -0.10000000000E+04  0.10000000000E+04  0.00000000000E+00 0.  1.
    9000005    2    1    2  501    0  0.25801946107E+02  0.20814685703E+02 -0.68042116525E+03  0.68123579369E+03  0.32020180402E+01 0.  0.
         13    1    3    3    0    0  0.12218764168E+02  0.81000785534E+01 -0.28337330290E+03  0.28375224804E+03  0.00000000000E+00 0.  1.
          1    1    3    3  501    0  0.13583181938E+02  0.12714607150E+02 -0.39704786235E+03  0.39748354566E+03  0.00000000000E+00 0.  1.
         -1    1    1    2    0  502 -0.25801946107E+02 -0.20814685703E+02 -0.31831070472E+03  0.32003233634E+03  0.00000000000E+00 0. -1.
<mgrwt>
<rscale>  1 0.30000000E+03</rscale>
<asrwt>0</asrwt>
<pdfrwt beam="1">  1       21 0.46113917E-02 0.30000000E+03</pdfrwt>
<pdfrwt beam="2">0</pdfrwt>
<totfact> 0.33056576E+04</totfact>
</mgrwt>
</event>
<event>
 6    1  0.1273846E-001  0.3000000E+03  0.7818608E-02  0.1093470E+00
         21   -1    0    0  501  502  0.00000000000E+00  0.00000000000E+00  0.12534348418E+01  0.12534348418E+01  0.00000000000E+00 0. -1.
         13   -1    0    0    0    0 -0.00000000000E+00 -0.00000000000E+00 -0.10000000000E+04  0.10000000000E+04  0.00000000000E+00 0.  1.
    9000005    2    1    2  501    0  0.10411920993E+02 -0.32267172529E+02 -0.63674927331E+03  0.63767178263E+03  0.51075215106E+01 0.  0.
         13    1    3    3    0    0  0.86230976170E+01 -0.28435858598E+02 -0.52245763512E+03  0.52330195524E+03  0.00000000000E+00 0.  1.
          3    1    3    3  501    0  0.17888233757E+01 -0.38313139318E+01 -0.11429163819E+03  0.11436982739E+03  0.00000000000E+00 0.  1.
         -3    1    1    2    0  502 -0.10411920993E+02  0.32267172529E+02 -0.36199729185E+03  0.36358165221E+03  0.00000000000E+00 0. -1.
<mgrwt>
<rscale>  1 0.30000000E+03</rscale>
<asrwt>0</asrwt>
<pdfrwt beam="1">  1       21 0.45579545E-02 0.30000000E+03</pdfrwt>
<pdfrwt beam="2">0</pdfrwt>
<totfact> 0.33717638E+04</totfact>
</mgrwt>
</event>
<event>
 6    1  0.1273846E-001  0.3000000E+03  0.7818608E-02  0.1093470E+00
         21   -1    0    0  501  502  0.00000000000E+00  0.00000000000E+00  0.40147366430E+01  0.40147366430E+01  0.00000000000E+00 0. -1.
         13   -1    0    0    0    0 -0.00000000000E+00 -0.00000000000E+00 -0.10000000000E+04  0.10000000000E+04  0.00000000000E+00 0.  1.
    9000005    2    1    2  501    0 -0.28403901497E+02 -0.28019084578E+02 -0.88786784880E+03  0.88877053483E+03  0.34490476485E+01 0.  0.
         13    1    3    3    0    0 -0.18585197452E+02 -0.19032673057E+02 -0.55640933236E+03  0.55704487911E+03  0.00000000000E+00 0.  1.
          1    1    3    3  501    0 -0.98187040451E+01 -0.89864115209E+01 -0.33145851645E+03  0.33172565573E+03  0.00000000000E+00 0.  1.
         -1    1    1    2    0  502  0.28403901497E+02  0.28019084578E+02 -0.10811741455E+03  0.11524420181E+03  0.00000000000E+00 0. -1.
<mgrwt>
<rscale>  1 0.30000000E+03</rscale>
<asrwt>0</asrwt>
<pdfrwt beam="1">  1       21 0.14599073E-01 0.30000000E+03</pdfrwt>
<pdfrwt beam="2">0</pdfrwt>
<totfact> 0.43294571E+03</totfact>
</mgrwt>
</event>
<event>
 6    1  0.1273846E-001  0.3000000E+03  0.7818608E-02  0.1093470E+00
         21   -1    0    0  501  502  0.00000000000E+00  0.00000000000E+00  0.18314160742E+01  0.18314160742E+01  0.00000000000E+00 0. -1.
         13   -1    0    0    0    0 -0.00000000000E+00 -0.00000000000E+00 -0.10000000000E+04  0.10000000000E+04  0.00000000000E+00 0.  1.
    9000005    2    1    2  501    0  0.24961068591E+02  0.17545462449E+02 -0.85006521178E+03  0.85061796747E+03  0.30272275691E+01 0.  0.
         13    1    3    3    0    0  0.10299778939E+02  0.62803241172E+01 -0.37107116113E+03  0.37126720100E+03  0.00000000000E+00 0.  1.
          1    1    3    3  501    0  0.14661289653E+02  0.11265138332E+02 -0.47899405065E+03  0.47935076647E+03  0.00000000000E+00 0.  1.
         -3    1    1    2    0  502 -0.24961068591E+02 -0.17545462449E+02 -0.14810337214E+03  0.15121344860E+03  0.00000000000E+00 0. -1.
<mgrwt>
<rscale>  1 0.30000000E+03</rscale>
<asrwt>0</asrwt>
<pdfrwt beam="1">  1       21 0.66597089E-02 0.30000000E+03</pdfrwt>
<pdfrwt beam="2">0</pdfrwt>
<totfact> 0.17594278E+04</totfact>
</mgrwt>
</event>
<event>
 6    1  0.1273846E-001  0.3000000E+03  0.7818608E-02  0.1093470E+00
         21   -1    0    0  501  502  0.00000000000E+00  0.00000000000E+00  0.22518225723E+01  0.22518225723E+01  0.00000000000E+00 0. -1.
         13   -1    0    0    0    0 -0.00000000000E+00 -0.00000000000E+00 -0.10000000000E+04  0.10000000000E+04  0.00000000000E+00 0.  1.
    9000005    2    1    2  501    0 -0.12043027330E+02 -0.36440170641E+02 -0.79324499865E+03  0.79417858866E+03  0.30136766608E+01 0.  0.
         13    1    3    3    0    0 -0.38164211117E+01 -0.15906439149E+02 -0.32509754366E+03  0.32550882134E+03  0.00000000000E+00 0.  1.
          1    1    3    3  501    0 -0.82266062182E+01 -0.20533731493E+02 -0.46814745500E+03  0.46866976732E+03  0.00000000000E+00 0.  1.
         -1    1    1    2    0  502  0.12043027330E+02  0.36440170641E+02 -0.20450317877E+03  0.20807323392E+03  0.00000000000E+00 0. -1.
<mgrwt>
<rscale>  1 0.30000000E+03</rscale>
<asrwt>0</asrwt>
<pdfrwt beam="1">  1       21 0.81884630E-02 0.30000000E+03</pdfrwt>
<pdfrwt beam="2">0</pdfrwt>
<totfact> 0.12261631E+04</totfact>
</mgrwt>
</event>
<event>
 6    1  0.1273846E-001  0.3000000E+03  0.7818608E-02  0.1093470E+00
         21   -1    0    0  501  502  0.00000000000E+00  0.00000000000E+00  0.13549131690E+01  0.13549131690E+01  0.00000000000E+00 0. -1.
         13   -1    0    0    0    0 -0.00000000000E+00 -0.00000000000E+00 -0.10000000000E+04  0.10000000000E+04  0.00000000000E+00 0.  1.
    9000005    2    1    2  501    0  0.10174372211E+02 -0.32235670717E+02 -0.69599604121E+03  0.69682396051E+03  0.32382455769E+01 0.  0.
         13    1    3    3    0    0  0.99115306326E+01 -0.28121743099E+02 -0.60368891687E+03  0.60442483340E+03  0.00000000000E+00 0.  1.
          1    1    3    3  501    0  0.26284157854E+00 -0.41139276179E+01 -0.92307124339E+02  0.92399127105E+02  0.00000000000E+00 0.  1.
         -1    1    1    2    0  502 -0.10174372211E+02  0.32235670717E+02 -0.30264904562E+03  0.30453095266E+03  0.00000000000E+00 0. -1.
<mgrwt>
<rscale>  1 0.30000000E+03</rscale>
<asrwt>0</asrwt>
<pdfrwt beam="1">  1       21 0.49269674E-02 0.30000000E+03</pdfrwt>
<pdfrwt beam="2">0</pdfrwt>
<totfact> 0.29536059E+04</totfact>
</mgrwt>
</event>
<event>
 6    1  0.1273846E-001  0.3000000E+03  0.7818608E-02  0.1093470E+00
         21   -1    0    0  501  502  0.00000000000E+00  0.00000000000E+00  0.13479324944E+01  0.13479324944E+01  0.00000000000E+00 0. -1.
         13   -1    0    0    0    0 -0.00000000000E+00 -0.00000000000E+00 -0.10000000000E+04  0.10000000000E+04  0.00000000000E+00 0.  1.
    9000005    2    1    2  501    0  0.30029429923E+02  0.14604983479E+02 -0.70529236178E+03  0.70609382304E+03  0.40123748192E+01 0.  0.
         13    1    3    3    0    0  0.28023629825E+02  0.13281348411E+02 -0.67177229414E+03  0.67248771975E+03  0.00000000000E+00 0.  1.
          1    1    3    3  501    0  0.20058000976E+01  0.13236350686E+01 -0.33520067644E+02  0.33606103295E+02  0.00000000000E+00 0.  1.
         -1    1    1    2    0  502 -0.30029429923E+02 -0.14604983479E+02 -0.29335970573E+03  0.29525410945E+03  0.00000000000E+00 0. -1.
<mgrwt>
<rscale>  1 0.30000000E+03</rscale>
<asrwt>0</asrwt>
<pdfrwt beam="1">  1       21 0.49015830E-02 0.30000000E+03</pdfrwt>
<pdfrwt beam="2">0</pdfrwt>
<totfact> 0.29797077E+04</totfact>
</mgrwt>
</event>
<event>
 6    1  0.1273846E-001  0.3000000E+03  0.7818608E-02  0.1093470E+00
         21   -1    0    0  501  502  0.00000000000E+00  0.00000000000E+00  0.12786272596E+01  0.12786272596E+01  0.00000000000E+00 0. -1.
         13   -1    0    0    0    0 -0.00000000000E+00 -0.00000000000E+00 -0.10000000000E+04  0.10000000000E+04  0.00000000000E+00 0.  1.
    9000005    2    1    2  501    0 -0.32550315556E+02  0.10324221253E+01 -0.70416349865E+03  0.70492591489E+03  0.37045538000E+01 0.  0.
         13    1    3    3    0    0 -0.16820589644E+02 -0.13126012409E+01 -0.35920578449E+03  0.35960179473E+03  0.00000000000E+00 0.  1.
          1    1    3    3  501    0 -0.15729725912E+02  0.23450233661E+01 -0.34495771415E+03  0.34532412016E+03  0.00000000000E+00 0.  1.
         -1    1    1    2    0  502  0.32550315556E+02 -0.10324221253E+01 -0.29455787409E+03  0.29635271237E+03  0.00000000000E+00 0. -1.
<mgrwt>
<rscale>  1 0.30000000E+03</rscale>
<asrwt>0</asrwt>
<pdfrwt beam="1">  1       21 0.46495635E-02 0.30000000E+03</pdfrwt>
<pdfrwt beam="2">0</pdfrwt>
<totfact> 0.32596724E+04</totfact>
</mgrwt>
</event>
<event>
 6    1  0.1273846E-001  0.3000000E+03  0.7818608E-02  0.1093470E+00
         21   -1    0    0  501  502  0.00000000000E+00  0.00000000000E+00  0.22093239059E+01  0.22093239059E+01  0.00000000000E+00 0. -1.
         13   -1    0    0    0    0 -0.00000000000E+00 -0.00000000000E+00 -0.10000000000E+04  0.10000000000E+04  0.00000000000E+00 0.  1.
    9000005    2    1    2  501    0  0.41821779570E+02 -0.14606860038E+02 -0.66519035383E+03  0.66667185063E+03  0.32753592994E+01 0.  0.
         13    1    3    3    0    0  0.18140946084E+02 -0.67387115822E+01 -0.26705545687E+03  0.26775571180E+03  0.00000000000E+00 0.  1.
          1    1    3    3  501    0  0.23680833486E+02 -0.78681484555E+01 -0.39813489696E+03  0.39891613882E+03  0.00000000000E+00 0.  1.
         -3    1    1    2    0  502 -0.41821779570E+02  0.14606860038E+02 -0.33260032226E+03  0.33553747328E+03  0.00000000000E+00 0. -1.
<mgrwt>
<rscale>  1 0.30000000E+03</rscale>
<asrwt>0</asrwt>
<pdfrwt beam="1">  1       21 0.80339221E-02 0.30000000E+03</pdfrwt>
<pdfrwt beam="2">0</pdfrwt>
<totfact> 0.12679273E+04</totfact>
</mgrwt>
</event>
<event>
 6    1  0.1273846E-001  0.3000000E+03  0.7818608E-02  0.1093470E+00
         21   -1    0    0  501  502  0.00000000000E+00  0.00000000000E+00  0.24946945504E+01  0.24946945504E+01  0.00000000000E+00 0. -1.
         13   -1    0    0    0    0 -0.00000000000E+00 -0.00000000000E+00 -0.10000000000E+04  0.10000000000E+04  0.00000000000E+00 0.  1.
    9000005    2    1    2  501    0 -0.39894035159E+02 -0.21107619877E+02 -0.71287151169E+03  0.71430471865E+03  0.28936571608E+01 0.  0.
         13    1    3    3    0    0 -0.33498523213E+01 -0.25313669459E+01 -0.74615811620E+02  0.74733852255E+02  0.00000000000E+00 0.  1.
          3    1    3    3  501    0 -0.36544182838E+02 -0.18576252931E+02 -0.63825570007E+03  0.63957086640E+03  0.00000000000E+00 0.  1.
         -3    1    1    2    0  502  0.39894035159E+02  0.21107619877E+02 -0.28463379376E+03  0.28818997590E+03  0.00000000000E+00 0. -1.
<mgrwt>
<rscale>  1 0.30000000E+03</rscale>
<asrwt>0</asrwt>
<pdfrwt beam="1">  1       21 0.90716357E-02 0.30000000E+03</pdfrwt>
<pdfrwt beam="2">0</pdfrwt>
<totfact> 0.10233288E+04</totfact>
</mgrwt>
</event>
<event>
 6    1  0.1273846E-001  0.3000000E+03  0.7818608E-02  0.1093470E+00
         21   -1    0    0  501  502  0.00000000000E+00  0.00000000000E+00  0.13002165380E+02  0.13002165380E+02  0.00000000000E+00 0. -1.
         13   -1    0    0    0    0 -0.00000000000E+00 -0.00000000000E+00 -0.10000000000E+04  0.10000000000E+04  0.00000000000E+00 0.  1.
    9000005    2    1    2  501    0  0.82654233921E+02 -0.58162898550E+02 -0.72791115692E+03  0.73490047227E+03  0.30670197010E+01 0.  0.
         13    1    3    3    0    0  0.58100196408E+02 -0.42581424359E+02 -0.51878956183E+03  0.52376657013E+03  0.00000000000E+00 0.  1.
          1    1    3    3  501    0  0.24554037513E+02 -0.15581474191E+02 -0.20912159509E+03  0.21113390214E+03  0.00000000000E+00 0.  1.
         -1    1    1    2    0  502 -0.82654233921E+02  0.58162898550E+02 -0.25908667770E+03  0.27810169311E+03  0.00000000000E+00 0. -1.
<mgrwt>
<rscale>  1 0.30000000E+03</rscale>
<asrwt>0</asrwt>
<pdfrwt beam="1">  1       21 0.47280701E-01 0.30000000E+03</pdfrwt>
<pdfrwt beam="2">0</pdfrwt>
<totfact> 0.42387046E+02</totfact>
</mgrwt>
</event>
<event>
 6    1  0.1273846E-001  0.3000000E+03  0.7818608E-02  0.1093470E+00
         21   -1    0    0  501  502  0.00000000000E+00  0.00000000000E+00  0.10492951476E+01  0.10492951476E+01  0.00000000000E+00 0. -1.
         13   -1    0    0    0    0 -0.00000000000E+00 -0.00000000000E+00 -0.10000000000E+04  0.10000000000E+04  0.00000000000E+00 0.  1.
    9000005    2    1    2  501    0 -0.24637695533E+02  0.20795253502E+02 -0.54078548270E+03  0.54175110290E+03  0.24208650891E+01 0.  0.
         13    1    3    3    0    0 -0.10161903361E+02  0.84046357098E+01 -0.24128199722E+03  0.24164209973E+03  0.00000000000E+00 0.  1.
          1    1    3    3  501    0 -0.14475792172E+02  0.12390617792E+02 -0.29950348548E+03  0.30010900317E+03  0.00000000000E+00 0.  1.
         -1    1    1    2    0  502  0.24637695533E+02 -0.20795253502E+02 -0.45816522215E+03  0.45929819225E+03  0.00000000000E+00 0. -1.
<mgrwt>
<rscale>  1 0.30000000E+03</rscale>
<asrwt>0</asrwt>
<pdfrwt beam="1">  1       21 0.38156268E-02 0.30000000E+03</pdfrwt>
<pdfrwt beam="2">0</pdfrwt>
<totfact> 0.45521099E+04</totfact>
</mgrwt>
</event>
<event>
 6    1  0.1273846E-001  0.3000000E+03  0.7818608E-02  0.1093470E+00
         21   -1    0    0  501  502  0.00000000000E+00  0.00000000000E+00  0.96028402032E+01  0.96028402032E+01  0.00000000000E+00 0. -1.
         13   -1    0    0    0    0 -0.00000000000E+00 -0.00000000000E+00 -0.10000000000E+04  0.10000000000E+04  0.00000000000E+00 0.  1.
    9000005    2    1    2  501    0 -0.32537099844E+02 -0.78590395079E+02 -0.74571641753E+03  0.75055886961E+03  0.32447357133E+01 0.  0.
         13    1    3    3    0    0 -0.17246591540E+02 -0.44107294642E+02 -0.40349110489E+03  0.40626096304E+03  0.00000000000E+00 0.  1.
          1    1    3    3  501    0 -0.15290508304E+02 -0.34483100437E+02 -0.34222531264E+03  0.34429790657E+03  0.00000000000E+00 0.  1.
         -1    1    1    2    0  502  0.32537099844E+02  0.78590395079E+02 -0.24468074226E+03  0.25904397059E+03  0.00000000000E+00 0. -1.
<mgrwt>
<rscale>  1 0.30000000E+03</rscale>
<asrwt>0</asrwt>
<pdfrwt beam="1">  1       21 0.34919493E-01 0.30000000E+03</pdfrwt>
<pdfrwt beam="2">0</pdfrwt>
<totfact> 0.79955125E+02</totfact>
</mgrwt>
</event>
<event>
 6    1  0.1273846E-001  0.3000000E+03  0.7818608E-02  0.1093470E+00
         21   -1    0    0  501  502  0.00000000000E+00  0.00000000000E+00  0.29900042693E+01  0.29900042693E+01  0.00000000000E+00 0. -1.
         13   -1    0    0    0    0 -0.00000000000E+00 -0.00000000000E+00 -0.10000000000E+04  0.10000000000E+04  0.00000000000E+00 0.  1.
    9000005    2    1    2  501    0  0.47467618137E+02  0.25256128421E+02 -0.40953557768E+03  0.41306014517E+03  0.28718194274E+01 0.  0.
         13    1    3    3    0    0  0.35683455434E+02  0.20267593029E+02 -0.30860003397E+03  0.31131666400E+03  0.00000000000E+00 0.  1.
          1    1    3    3  501    0  0.11784162703E+02  0.49885353915E+01 -0.10093554371E+03  0.10174348117E+03  0.00000000000E+00 0.  1.
         -1    1    1    2    0  502 -0.47467618137E+02 -0.25256128421E+02 -0.58747441805E+03  0.58992985910E+03  0.00000000000E+00 0. -1.
<mgrwt>
<rscale>  1 0.30000000E+03</rscale>
<asrwt>0</asrwt>
<pdfrwt beam="1">  1       21 0.10872766E-01 0.30000000E+03</pdfrwt>
<pdfrwt beam="2">0</pdfrwt>
<totfact> 0.74053414E+03</totfact>
</mgrwt>
</event>
<event>
 6    1  0.1273846E-001  0.3000000E+03  0.7818608E-02  0.1093470E+00
         21   -1    0    0  501  502  0.00000000000E+00  0.00000000000E+00  0.11178902043E+01  0.11178902043E+01  0.00000000000E+00 0. -1.
         13   -1    0    0    0    0 -0.00000000000E+00 -0.00000000000E+00 -0.10000000000E+04  0.10000000000E+04  0.00000000000E+00 0.  1.
    9000005    2    1    2  501    0  0.80127020537E+01  0.31905271369E+02 -0.58380923345E+03  0.58474348847E+03  0.30945953515E+01 0.  0.
         13    1    3    3    0    0  0.63346478852E+01  0.20798499228E+02 -0.40215945669E+03  0.40274673672E+03  0.00000000000E+00 0.  1.
          1    1    3    3  501    0  0.16780541685E+01  0.11106772141E+02 -0.18164977676E+03  0.18199675175E+03  0.00000000000E+00 0.  1.
         -3    1    1    2    0  502 -0.80127020537E+01 -0.31905271369E+02 -0.41507287635E+03  0.41637440173E+03  0.00000000000E+00 0. -1.
<mgrwt>
<rscale>  1 0.30000000E+03</rscale>
<asrwt>0</asrwt>
<pdfrwt beam="1">  1       21 0.40650639E-02 0.30000000E+03</pdfrwt>
<pdfrwt beam="2">0</pdfrwt>
<totfact> 0.40919733E+04</totfact>
</mgrwt>
</event>
<event>
 6    1  0.1273846E-001  0.3000000E+03  0.7818608E-02  0.1093470E+00
         21   -1    0    0  501  502  0.00000000000E+00  0.00000000000E+00  0.28958389427E+01  0.28958389427E+01  0.00000000000E+00 0. -1.
         13   -1    0    0    0    0 -0.00000000000E+00 -0.00000000000E+00 -0.10000000000E+04  0.10000000000E+04  0.00000000000E+00 0.  1.
    9000005    2    1    2  501    0  0.58174038170E+01 -0.53058116965E+02 -0.55813718254E+03  0.56069564198E+03  0.36718444186E+01 0.  0.
         13    1    3    3    0    0 -0.34973371220E-02 -0.21971554685E+00 -0.63505157970E+01  0.63543164888E+01  0.00000000000E+00 0.  1.
          1    1    3    3  501    0  0.58209011542E+01 -0.52838401418E+02 -0.55178666674E+03  0.55434132549E+03  0.00000000000E+00 0.  1.
         -3    1    1    2    0  502 -0.58174038170E+01  0.53058116965E+02 -0.43896697852E+03  0.44220019696E+03  0.00000000000E+00 0. -1.
<mgrwt>
<rscale>  1 0.30000000E+03</rscale>
<asrwt>0</asrwt>
<pdfrwt beam="1">  1       21 0.10530346E-01 0.30000000E+03</pdfrwt>
<pdfrwt beam="2">0</pdfrwt>
<totfact> 0.78431855E+03</totfact>
</mgrwt>
</event>
<event>
 6    1  0.1273846E-001  0.3000000E+03  0.7818608E-02  0.1093470E+00
         21   -1    0    0  501  502  0.00000000000E+00  0.00000000000E+00  0.11381837719E+01  0.11381837719E+01  0.00000000000E+00 0. -1.
         13   -1    0    0    0    0 -0.00000000000E+00 -0.00000000000E+00 -0.10000000000E+04  0.10000000000E+04  0.00000000000E+00 0.  1.
    9000005    2    1    2  501    0  0.16798243505E+01  0.33625038354E+02 -0.51449468577E+03  0.51560241570E+03  0.27576023004E+01 0.  0.
         13    1    3    3    0    0 -0.75168096526E+00  0.78335802812E+01 -0.12340353344E+03  0.12365420360E+03  0.00000000000E+00 0.  1.
          1    1    3    3  501    0  0.24315053157E+01  0.25791458073E+02 -0.39109115234E+03  0.39194821209E+03  0.00000000000E+00 0.  1.
         -1    1    1    2    0  502 -0.16798243505E+01 -0.33625038354E+02 -0.48436713046E+03  0.48553576807E+03  0.00000000000E+00 0. -1.
<mgrwt>
<rscale>  1 0.30000000E+03</rscale>
<asrwt>0</asrwt>
<pdfrwt beam="1">  1       21 0.41388588E-02 0.30000000E+03</pdfrwt>
<pdfrwt beam="2">0</pdfrwt>
<totfact> 0.39696973E+04</totfact>
</mgrwt>
</event>
<event>
 6    1  0.1273846E-001  0.3000000E+03  0.7818608E-02  0.1093470E+00
         21   -1    0    0  501  502  0.00000000000E+00  0.00000000000E+00  0.12914221769E+01  0.12914221769E+01  0.00000000000E+00 0. -1.
         13   -1    0    0    0    0 -0.00000000000E+00 -0.00000000000E+00 -0.10000000000E+04  0.10000000000E+04  0.00000000000E+00 0.  1.
    9000005    2    1    2  501    0 -0.17496202863E+02  0.30996671005E+02 -0.44003979205E+03  0.44148991903E+03  0.33792440041E+01 0.  0.
         13    1    3    3    0    0 -0.41080328440E+01  0.97856812673E+01 -0.11963600969E+03  0.12010582961E+03  0.00000000000E+00 0.  1.
          3    1    3    3  501    0 -0.13388170019E+02  0.21210989738E+02 -0.32040378236E+03  0.32138408942E+03  0.00000000000E+00 0.  1.
         -1    1    1    2    0  502  0.17496202863E+02 -0.30996671005E+02 -0.55866878577E+03  0.55980150315E+03  0.00000000000E+00 0. -1.
<mgrwt>
<rscale>  1 0.30000000E+03</rscale>
<asrwt>0</asrwt>
<pdfrwt beam="1">  1       21 0.46960905E-02 0.30000000E+03</pdfrwt>
<pdfrwt beam="2">0</pdfrwt>
<totfact> 0.32049645E+04</totfact>
</mgrwt>
</event>
<event>
 6    1  0.1273846E-001  0.3000000E+03  0.7818608E-02  0.1093470E+00
         21   -1    0    0  501  502  0.00000000000E+00  0.00000000000E+00  0.12965677622E+02  0.12965677622E+02  0.00000000000E+00 0. -1.
         13   -1    0    0    0    0 -0.00000000000E+00 -0.00000000000E+00 -0.10000000000E+04  0.10000000000E+04  0.00000000000E+00 0.  1.
    9000005    2    1    2  501    0 -0.10788472358E+03  0.22714491716E+02 -0.61985190841E+03  0.62958859583E+03  0.32171296429E+01 0.  0.
         13    1    3    3    0    0 -0.93998328464E+02  0.20479337855E+02 -0.53589953171E+03  0.54446615792E+03  0.00000000000E+00 0.  1.
          3    1    3    3  501    0 -0.13886395120E+02  0.22351538604E+01 -0.83952376703E+02  0.85122437913E+02  0.00000000000E+00 0.  1.
         -3    1    1    2    0  502  0.10788472358E+03 -0.22714491716E+02 -0.36718241396E+03  0.38337708179E+03  0.00000000000E+00 0. -1.
<mgrwt>
<rscale>  1 0.30000000E+03</rscale>
<asrwt>0</asrwt>
<pdfrwt beam="1">  1       21 0.47148018E-01 0.30000000E+03</pdfrwt>
<pdfrwt beam="2">0</pdfrwt>
<totfact> 0.42643268E+02</totfact>
</mgrwt>
</event>
<event>
 6    1  0.1273846E-001  0.3000000E+03  0.7818608E-02  0.1093470E+00
         21   -1    0    0  501  502  0.00000000000E+00  0.00000000000E+00  0.10422285398E+02  0.10422285398E+02  0.00000000000E+00 0. -1.
         13   -1    0    0    0    0 -0.00000000000E+00 -0.00000000000E+00 -0.10000000000E+04  0.10000000000E+04  0.00000000000E+00 0.  1.
    9000005    2    1    2  501    0 -0.13482803807E+02  0.91194625334E+02 -0.27828907256E+03  0.29318468321E+03  0.37689357047E+01 0.  0.
         13    1    3    3    0    0 -0.57627246723E+01  0.27166694240E+02 -0.83572422355E+02  0.88065816579E+02  0.00000000000E+00 0.  1.
          1    1    3    3  501    0 -0.77200791352E+01  0.64027931094E+02 -0.19471665020E+03  0.20511886663E+03  0.00000000000E+00 0.  1.
         -3    1    1    2    0  502  0.13482803807E+02 -0.91194625334E+02 -0.71128864205E+03  0.71723760219E+03  0.00000000000E+00 0. -1.
<mgrwt>
<rscale>  1 0.30000000E+03</rscale>
<asrwt>0</asrwt>
<pdfrwt beam="1">  1       21 0.37899300E-01 0.30000000E+03</pdfrwt>
<pdfrwt beam="2">0</pdfrwt>
<totfact> 0.67566080E+02</totfact>
</mgrwt>
</event>
<event>
 6    1  0.1273846E-001  0.3000000E+03  0.7818608E-02  0.1093470E+00
         21   -1    0    0  501  502  0.00000000000E+00  0.00000000000E+00  0.16473568231E+01  0.16473568231E+01  0.00000000000E+00 0. -1.
         13   -1    0    0    0    0 -0.00000000000E+00 -0.00000000000E+00 -0.10000000000E+04  0.10000000000E+04  0.00000000000E+00 0.  1.
    9000005    2    1    2  501    0  0.30371118730E+02 -0.23577536578E+02 -0.65379559388E+03  0.65495171897E+03  0.58966537172E+01 0.  0.
         13    1    3    3    0    0  0.20090971426E+02 -0.11960886051E+02 -0.38828300510E+03  0.38898637762E+03  0.00000000000E+00 0.  1.
          3    1    3    3  501    0  0.10280147303E+02 -0.11616650527E+02 -0.26551258878E+03  0.26596534135E+03  0.00000000000E+00 0.  1.
         -3    1    1    2    0  502 -0.30371118730E+02  0.23577536578E+02 -0.34455704930E+03  0.34669563785E+03  0.00000000000E+00 0. -1.
<mgrwt>
<rscale>  1 0.30000000E+03</rscale>
<asrwt>0</asrwt>
<pdfrwt beam="1">  1       21 0.59904011E-02 0.30000000E+03</pdfrwt>
<pdfrwt beam="2">0</pdfrwt>
<totfact> 0.21129930E+04</totfact>
</mgrwt>
</event>
<event>
 6    1  0.1273846E-001  0.3000000E+03  0.7818608E-02  0.1093470E+00
         21   -1    0    0  501  502  0.00000000000E+00  0.00000000000E+00  0.33238521435E+01  0.33238521435E+01  0.00000000000E+00 0. -1.
         13   -1    0    0    0    0 -0.00000000000E+00 -0.00000000000E+00 -0.10000000000E+04  0.10000000000E+04  0.00000000000E+00 0.  1.
    9000005    2    1    2  501    0 -0.35062128427E+02 -0.44698524033E+00 -0.89643120546E+03  0.89712309357E+03  0.33743514803E+01 0.  0.
         13    1    3    3    0    0 -0.32320380527E+02 -0.12255159360E+01 -0.83377596072E+03  0.83440305702E+03  0.00000000000E+00 0.  1.
          3    1    3    3  501    0 -0.27417479000E+01  0.77853069567E+00 -0.62655244731E+02  0.62720036543E+02  0.00000000000E+00 0.  1.
         -3    1    1    2    0  502  0.35062128427E+02  0.44698524033E+00 -0.10024494240E+03  0.10620075858E+03  0.00000000000E+00 0. -1.
<mgrwt>
<rscale>  1 0.30000000E+03</rscale>
<asrwt>0</asrwt>
<pdfrwt beam="1">  1       21 0.12086761E-01 0.30000000E+03</pdfrwt>
<pdfrwt beam="2">0</pdfrwt>
<totfact> 0.61165876E+03</totfact>
</mgrwt>
</event>
<event>
 6    1  0.1273846E-001  0.3000000E+03  0.7818608E-02  0.1093470E+00
         21   -1    0    0  501  502  0.00000000000E+00  0.00000000000E+00  0.98456988900E+00  0.98456988900E+00  0.00000000000E+00 0. -1.
         13   -1    0    0    0    0 -0.00000000000E+00 -0.00000000000E+00 -0.10000000000E+04  0.10000000000E+04  0.00000000000E+00 0.  1.
    9000005    2    1    2  501    0 -0.29336877559E+02  0.85182602849E+01 -0.39406247495E+03  0.39526079530E+03  0.35565425591E+01 0.  0.
         13    1    3    3    0    0 -0.42856116351E-01  0.33533057947E+00 -0.39612638202E+01  0.39756627495E+01  0.00000000000E+00 0.  1.
          3    1    3    3  501    0 -0.29294021443E+02  0.81829297054E+01 -0.39010121112E+03  0.39128513255E+03  0.00000000000E+00 0.  1.
         -1    1    1    2    0  502  0.29336877559E+02 -0.85182602849E+01 -0.60495295517E+03  0.60572377459E+03  0.00000000000E+00 0. -1.
<mgrwt>
<rscale>  1 0.30000000E+03</rscale>
<asrwt>0</asrwt>
<pdfrwt beam="1">  1       21 0.35802617E-02 0.30000000E+03</pdfrwt>
<pdfrwt beam="2">0</pdfrwt>
<totfact> 0.50655157E+04</totfact>
</mgrwt>
</event>
<event>
 6    1  0.1273846E-001  0.3000000E+03  0.7818608E-02  0.1093470E+00
         21   -1    0    0  501  502  0.00000000000E+00  0.00000000000E+00  0.10869653824E+01  0.10869653824E+01  0.00000000000E+00 0. -1.
         13   -1    0    0    0    0 -0.00000000000E+00 -0.00000000000E+00 -0.10000000000E+04  0.10000000000E+04  0.00000000000E+00 0.  1.
    9000005    2    1    2  501    0  0.77649950048E+01 -0.30803211117E+02 -0.63110936169E+03  0.63191400486E+03  0.26739786578E+01 0.  0.
         13    1    3    3    0    0  0.51193861867E+01 -0.20714432680E+02 -0.39832216734E+03  0.39889327499E+03  0.00000000000E+00 0.  1.
          3    1    3    3  501    0  0.26456088181E+01 -0.10088778436E+02 -0.23278719435E+03  0.23302072987E+03  0.00000000000E+00 0.  1.
         -1    1    1    2    0  502 -0.77649950048E+01  0.30803211117E+02 -0.36780367293E+03  0.36917296052E+03  0.00000000000E+00 0. -1.
<mgrwt>
<rscale>  1 0.30000000E+03</rscale>
<asrwt>0</asrwt>
<pdfrwt beam="1">  1       21 0.39526097E-02 0.30000000E+03</pdfrwt>
<pdfrwt beam="2">0</pdfrwt>
<totfact> 0.42899519E+04</totfact>
</mgrwt>
</event>
<event>
 6    1  0.1273846E-001  0.3000000E+03  0.7818608E-02  0.1093470E+00
         21   -1    0    0  501  502  0.00000000000E+00  0.00000000000E+00  0.57532594350E+01  0.57532594350E+01  0.00000000000E+00 0. -1.
         13   -1    0    0    0    0 -0.00000000000E+00 -0.00000000000E+00 -0.10000000000E+04  0.10000000000E+04  0.00000000000E+00 0.  1.
    9000005    2    1    2  501    0  0.52364204133E+02 -0.13679826426E+02 -0.84926225512E+03  0.85099651953E+03  0.44216240623E+01 0.  0.
         13    1    3    3    0    0  0.10692850454E+02 -0.10370329645E+01 -0.16107092770E+03  0.16142879619E+03  0.00000000000E+00 0.  1.
          1    1    3    3  501    0  0.41671353679E+02 -0.12642793461E+02 -0.68819132742E+03  0.68956772335E+03  0.00000000000E+00 0.  1.
         -1    1    1    2    0  502 -0.52364204133E+02  0.13679826426E+02 -0.14498448544E+03  0.15475673990E+03  0.00000000000E+00 0. -1.
<mgrwt>
<rscale>  1 0.30000000E+03</rscale>
<asrwt>0</asrwt>
<pdfrwt beam="1">  1       21 0.20920988E-01 0.30000000E+03</pdfrwt>
<pdfrwt beam="2">0</pdfrwt>
<totfact> 0.22012689E+03</totfact>
</mgrwt>
</event>
<event>
 6    1  0.1273846E-001  0.3000000E+03  0.7818608E-02  0.1093470E+00
         21   -1    0    0  501  502  0.00000000000E+00  0.00000000000E+00  0.23120277474E+01  0.23120277474E+01  0.00000000000E+00 0. -1.
         13   -1    0    0    0    0 -0.00000000000E+00 -0.00000000000E+00 -0.10000000000E+04  0.10000000000E+04  0.00000000000E+00 0.  1.
    9000005    2    1    2  501    0 -0.55240777973E+01 -0.36264268482E+02 -0.82242355107E+03  0.82324994372E+03  0.37894425642E+01 0.  0.
         13    1    3    3    0    0 -0.49984115400E+01 -0.23730041534E+02 -0.56743173998E+03  0.56794971478E+03  0.00000000000E+00 0.  1.
          1    1    3    3  501    0 -0.52566625734E+00 -0.12534226948E+02 -0.25499181109E+03  0.25530022894E+03  0.00000000000E+00 0.  1.
         -3    1    1    2    0  502  0.55240777973E+01  0.36264268482E+02 -0.17526442118E+03  0.17906208403E+03  0.00000000000E+00 0. -1.
<mgrwt>
<rscale>  1 0.30000000E+03</rscale>
<asrwt>0</asrwt>
<pdfrwt beam="1">  1       21 0.84073914E-02 0.30000000E+03</pdfrwt>
<pdfrwt beam="2">0</pdfrwt>
<totfact> 0.11705119E+04</totfact>
</mgrwt>
</event>
<event>
 6    1  0.1273846E-001  0.3000000E+03  0.7818608E-02  0.1093470E+00
         21   -1    0    0  501  502  0.00000000000E+00  0.00000000000E+00  0.12008281203E+01  0.12008281203E+01  0.00000000000E+00 0. -1.
         13   -1    0    0    0    0 -0.00000000000E+00 -0.00000000000E+00 -0.10000000000E+04  0.10000000000E+04  0.00000000000E+00 0.  1.
    9000005    2    1    2  501    0 -0.17167668879E+02 -0.30001338079E+02 -0.50398785451E+03  0.50518364199E+03  0.34562259333E+01 0.  0.
         13    1    3    3    0    0 -0.13670121449E+02 -0.21644309599E+02 -0.35671461993E+03  0.35763202937E+03  0.00000000000E+00 0.  1.
          1    1    3    3  501    0 -0.34975474302E+01 -0.83570284795E+01 -0.14727323458E+03  0.14755161262E+03  0.00000000000E+00 0.  1.
         -3    1    1    2    0  502  0.17167668879E+02  0.30001338079E+02 -0.49481131737E+03  0.49601718613E+03  0.00000000000E+00 0. -1.
<mgrwt>
<rscale>  1 0.30000000E+03</rscale>
<asrwt>0</asrwt>
<pdfrwt beam="1">  1       21 0.43666569E-02 0.30000000E+03</pdfrwt>
<pdfrwt beam="2">0</pdfrwt>
<totfact> 0.36260521E+04</totfact>
</mgrwt>
</event>
<event>
 6    1  0.1273846E-001  0.3000000E+03  0.7818608E-02  0.1093470E+00
         21   -1    0    0  501  502  0.00000000000E+00  0.00000000000E+00  0.33890431208E+01  0.33890431208E+01  0.00000000000E+00 0. -1.
         13   -1    0    0    0    0 -0.00000000000E+00 -0.00000000000E+00 -0.10000000000E+04  0.10000000000E+04  0.00000000000E+00 0.  1.
    9000005    2    1    2  501    0 -0.51905040791E+02  0.25400324718E+02 -0.44115175620E+03  0.44493203191E+03  0.32142281639E+01 0.  0.
         13    1    3    3    0    0 -0.14155540885E+02  0.54623898760E+01 -0.11968716650E+03  0.12064507808E+03  0.00000000000E+00 0.  1.
          3    1    3    3  501    0 -0.37749499906E+02  0.19937934842E+02 -0.32146458970E+03  0.32428695382E+03  0.00000000000E+00 0.  1.
         -3    1    1    2    0  502  0.51905040791E+02 -0.25400324718E+02 -0.55545920068E+03  0.55845701122E+03  0.00000000000E+00 0. -1.
<mgrwt>
<rscale>  1 0.30000000E+03</rscale>
<asrwt>0</asrwt>
<pdfrwt beam="1">  1       21 0.12323819E-01 0.30000000E+03</pdfrwt>
<pdfrwt beam="2">0</pdfrwt>
<totfact> 0.59043239E+03</totfact>
</mgrwt>
</event>
<event>
 6    1  0.1273846E-001  0.3000000E+03  0.7818608E-02  0.1093470E+00
         21   -1    0    0  501  502  0.00000000000E+00  0.00000000000E+00  0.31474736760E+01  0.31474736760E+01  0.00000000000E+00 0. -1.
         13   -1    0    0    0    0 -0.00000000000E+00 -0.00000000000E+00 -0.10000000000E+04  0.10000000000E+04  0.00000000000E+00 0.  1.
    9000005    2    1    2  501    0  0.55346549982E+02 -0.72429891548E+01 -0.45444044941E+03  0.45787088087E+03  0.37309511255E+01 0.  0.
         13    1    3    3    0    0  0.27984939481E+02 -0.17997673357E+01 -0.22565243811E+03  0.22738825569E+03  0.00000000000E+00 0.  1.
          3    1    3    3  501    0  0.27361610501E+02 -0.54432218191E+01 -0.22878801130E+03  0.23048262517E+03  0.00000000000E+00 0.  1.
         -1    1    1    2    0  502 -0.55346549982E+02  0.72429891548E+01 -0.54241207691E+03  0.54527659281E+03  0.00000000000E+00 0. -1.
<mgrwt>
<rscale>  1 0.30000000E+03</rscale>
<asrwt>0</asrwt>
<pdfrwt beam="1">  1       21 0.11445383E-01 0.30000000E+03</pdfrwt>
<pdfrwt beam="2">0</pdfrwt>
<totfact> 0.67513555E+03</totfact>
</mgrwt>
</event>
<event>
 6    1  0.1273846E-001  0.3000000E+03  0.7818608E-02  0.1093470E+00
         21   -1    0    0  501  502  0.00000000000E+00  0.00000000000E+00  0.20678455580E+01  0.20678455580E+01  0.00000000000E+00 0. -1.
         13   -1    0    0    0    0 -0.00000000000E+00 -0.00000000000E+00 -0.10000000000E+04  0.10000000000E+04  0.00000000000E+00 0.  1.
    9000005    2    1    2  501    0 -0.14539065944E+02  0.28526992922E+02 -0.85414843989E+03  0.85476227766E+03  0.48805920070E+01 0.  0.
         13    1    3    3    0    0 -0.32325372442E+01  0.73944355990E+01 -0.16506017260E+03  0.16525733737E+03  0.00000000000E+00 0.  1.
          1    1    3    3  501    0 -0.11306528700E+02  0.21132557323E+02 -0.68908826729E+03  0.68950494029E+03  0.00000000000E+00 0.  1.
         -3    1    1    2    0  502  0.14539065944E+02 -0.28526992922E+02 -0.14378371455E+03  0.14730556789E+03  0.00000000000E+00 0. -1.
<mgrwt>
<rscale>  1 0.30000000E+03</rscale>
<asrwt>0</asrwt>
<pdfrwt beam="1">  1       21 0.75194542E-02 0.30000000E+03</pdfrwt>
<pdfrwt beam="2">0</pdfrwt>
<totfact> 0.14239726E+04</totfact>
</mgrwt>
</event>
<event>
 6    1  0.1273846E-001  0.3000000E+03  0.7818608E-02  0.1093470E+00
         21   -1    0    0  501  502  0.00000000000E+00  0.00000000000E+00  0.24349056114E+02  0.24349056114E+02  0.00000000000E+00 0. -1.
         13   -1    0    0    0    0 -0.00000000000E+00 -0.00000000000E+00 -0.10000000000E+04  0.10000000000E+04  0.00000000000E+00 0.  1.
    9000005    2    1    2  501    0  0.36208314733E+02 -0.28471355774E+02 -0.97712845595E+03  0.97826388282E+03  0.99269761225E+01 0.  0.
         13    1    3    3    0    0  0.80610483159E+01 -0.94003297179E+01 -0.19140753060E+03  0.19180768877E+03  0.00000000000E+00 0.  1.
          1    1    3    3  501    0  0.28147266417E+02 -0.19071026056E+02 -0.78572092535E+03  0.78645619406E+03  0.00000000000E+00 0.  1.
         -3    1    1    2    0  502 -0.36208314733E+02  0.28471355774E+02  0.14775120634E+01  0.46085173292E+02  0.00000000000E+00 0. -1.
<mgrwt>
<rscale>  1 0.30000000E+03</rscale>
<asrwt>0</asrwt>
<pdfrwt beam="1">  1       21 0.88542209E-01 0.30000000E+03</pdfrwt>
<pdfrwt beam="2">0</pdfrwt>
<totfact> 0.10024732E+02</totfact>
</mgrwt>
</event>
<event>
 6    1  0.1273846E-001  0.3000000E+03  0.7818608E-02  0.1093470E+00
         21   -1    0    0  501  502  0.00000000000E+00  0.00000000000E+00  0.33931506841E+01  0.33931506841E+01  0.00000000000E+00 0. -1.
         13   -1    0    0    0    0 -0.00000000000E+00 -0.00000000000E+00 -0.10000000000E+04  0.10000000000E+04  0.00000000000E+00 0.  1.
    9000005    2    1    2  501    0  0.18737569509E+02  0.53976766901E+02 -0.57661084505E+03  0.57952851253E+03  0.10423163264E+02 0.  0.
         13    1    3    3    0    0  0.20853164513E+01  0.16980513239E+02 -0.14157212139E+03  0.14260207547E+03  0.00000000000E+00 0.  1.
          3    1    3    3  501    0  0.16652253058E+02  0.36996253662E+02 -0.43503872366E+03  0.43692643706E+03  0.00000000000E+00 0.  1.
         -1    1    1    2    0  502 -0.18737569509E+02 -0.53976766901E+02 -0.41999600427E+03  0.42386463815E+03  0.00000000000E+00 0. -1.
<mgrwt>
<rscale>  1 0.30000000E+03</rscale>
<asrwt>0</asrwt>
<pdfrwt beam="1">  1       21 0.12338756E-01 0.30000000E+03</pdfrwt>
<pdfrwt beam="2">0</pdfrwt>
<totfact> 0.58913228E+03</totfact>
</mgrwt>
</event>
<event>
 6    1  0.1273846E-001  0.3000000E+03  0.7818608E-02  0.1093470E+00
         21   -1    0    0  501  502  0.00000000000E+00  0.00000000000E+00  0.10682575207E+01  0.10682575207E+01  0.00000000000E+00 0. -1.
         13   -1    0    0    0    0 -0.00000000000E+00 -0.00000000000E+00 -0.10000000000E+04  0.10000000000E+04  0.00000000000E+00 0.  1.
    9000005    2    1    2  501    0  0.13178955638E+02  0.28155384733E+02 -0.65062312762E+03  0.65137510382E+03  0.35582466026E+01 0.  0.
         13    1    3    3    0    0  0.94240341528E+01  0.18122023501E+02 -0.45620325095E+03  0.45666029643E+03  0.00000000000E+00 0.  1.
          1    1    3    3  501    0  0.37549214856E+01  0.10033361232E+02 -0.19441987667E+03  0.19471480739E+03  0.00000000000E+00 0.  1.
         -1    1    1    2    0  502 -0.13178955638E+02 -0.28155384733E+02 -0.34830861486E+03  0.34969315370E+03  0.00000000000E+00 0. -1.
<mgrwt>
<rscale>  1 0.30000000E+03</rscale>
<asrwt>0</asrwt>
<pdfrwt beam="1">  1       21 0.38845810E-02 0.30000000E+03</pdfrwt>
<pdfrwt beam="2">0</pdfrwt>
<totfact> 0.44170980E+04</totfact>
</mgrwt>
</event>
<event>
 6    1  0.1273846E-001  0.3000000E+03  0.7818608E-02  0.1093470E+00
         21   -1    0    0  501  502  0.00000000000E+00  0.00000000000E+00  0.16766884993E+01  0.16766884993E+01  0.00000000000E+00 0. -1.
         13   -1    0    0    0    0 -0.00000000000E+00 -0.00000000000E+00 -0.10000000000E+04  0.10000000000E+04  0.00000000000E+00 0.  1.
    9000005    2    1    2  501    0  0.28492169375E+02  0.27470388252E+02 -0.62549506289E+03  0.62675359117E+03  0.30926367956E+01 0.  0.
         13    1    3    3    0    0  0.16688511018E+01  0.15350491368E+01 -0.26067040073E+02  0.26165473778E+02  0.00000000000E+00 0.  1.
          1    1    3    3  501    0  0.26823318274E+02  0.25935339116E+02 -0.59942802281E+03  0.60058811739E+03  0.00000000000E+00 0.  1.
         -1    1    1    2    0  502 -0.28492169375E+02 -0.27470388252E+02 -0.37282824862E+03  0.37492309733E+03  0.00000000000E+00 0. -1.
<mgrwt>
<rscale>  1 0.30000000E+03</rscale>
<asrwt>0</asrwt>
<pdfrwt beam="1">  1       21 0.60970619E-02 0.30000000E+03</pdfrwt>
<pdfrwt beam="2">0</pdfrwt>
<totfact> 0.20496292E+04</totfact>
</mgrwt>
</event>
<event>
 6    1  0.1273846E-001  0.3000000E+03  0.7818608E-02  0.1093470E+00
         21   -1    0    0  501  502  0.00000000000E+00  0.00000000000E+00  0.25144038555E+01  0.25144038555E+01  0.00000000000E+00 0. -1.
         13   -1    0    0    0    0 -0.00000000000E+00 -0.00000000000E+00 -0.10000000000E+04  0.10000000000E+04  0.00000000000E+00 0.  1.
    9000005    2    1    2  501    0  0.31297266318E+02  0.50103901346E+00 -0.89017277908E+03  0.89072974201E+03  0.34823490272E+01 0.  0.
         13    1    3    3    0    0  0.23362574914E+02 -0.10135850054E+01 -0.67869276878E+03  0.67909550997E+03  0.00000000000E+00 0.  1.
          3    1    3    3  501    0  0.79346914045E+01  0.15146240189E+01 -0.21148001030E+03  0.21163423204E+03  0.00000000000E+00 0.  1.
         -1    1    1    2    0  502 -0.31297266318E+02 -0.50103901346E+00 -0.10731281706E+03  0.11178466185E+03  0.00000000000E+00 0. -1.
<mgrwt>
<rscale>  1 0.30000000E+03</rscale>
<asrwt>0</asrwt>
<pdfrwt beam="1">  1       21 0.91433060E-02 0.30000000E+03</pdfrwt>
<pdfrwt beam="2">0</pdfrwt>
<totfact> 0.10091450E+04</totfact>
</mgrwt>
</event>
<event>
 6    1  0.1273846E-001  0.3000000E+03  0.7818608E-02  0.1093470E+00
         21   -1    0    0  501  502  0.00000000000E+00  0.00000000000E+00  0.33700034189E+01  0.33700034189E+01  0.00000000000E+00 0. -1.
         13   -1    0    0    0    0 -0.00000000000E+00 -0.00000000000E+00 -0.10000000000E+04  0.10000000000E+04  0.00000000000E+00 0.  1.
    9000005    2    1    2  501    0 -0.25974379855E+02  0.24838353642E+02 -0.89209072986E+03  0.89282557567E+03  0.44750465778E+01 0.  0.
         13    1    3    3    0    0 -0.12613579900E+02  0.13545017510E+02 -0.50685865573E+03  0.50719647749E+03  0.00000000000E+00 0.  1.
          1    1    3    3  501    0 -0.13360799954E+02  0.11293336132E+02 -0.38523207413E+03  0.38562909817E+03  0.00000000000E+00 0.  1.
         -3    1    1    2    0  502  0.25974379855E+02 -0.24838353642E+02 -0.10453926672E+03  0.11054442775E+03  0.00000000000E+00 0. -1.
<mgrwt>
<rscale>  1 0.30000000E+03</rscale>
<asrwt>0</asrwt>
<pdfrwt beam="1">  1       21 0.12254584E-01 0.30000000E+03</pdfrwt>
<pdfrwt beam="2">0</pdfrwt>
<totfact> 0.59651600E+03</totfact>
</mgrwt>
</event>
<event>
 6    1  0.1273846E-001  0.3000000E+03  0.7818608E-02  0.1093470E+00
         21   -1    0    0  501  502  0.00000000000E+00  0.00000000000E+00  0.17340664609E+01  0.17340664609E+01  0.00000000000E+00 0. -1.
         13   -1    0    0    0    0 -0.00000000000E+00 -0.00000000000E+00 -0.10000000000E+04  0.10000000000E+04  0.00000000000E+00 0.  1.
    9000005    2    1    2  501    0  0.14983772134E+02  0.37194821040E+02 -0.36842580117E+03  0.37061873589E+03  0.35648681595E+01 0.  0.
         13    1    3    3    0    0  0.77287532322E+01  0.17567836229E+02 -0.16089325092E+03  0.16203394918E+03  0.00000000000E+00 0.  1.
          3    1    3    3  501    0  0.72550189017E+01  0.19626984811E+02 -0.20753255026E+03  0.20858478671E+03  0.00000000000E+00 0.  1.
         -1    1    1    2    0  502 -0.14983772134E+02 -0.37194821040E+02 -0.62984013237E+03  0.63111533057E+03  0.00000000000E+00 0. -1.
<mgrwt>
<rscale>  1 0.30000000E+03</rscale>
<asrwt>0</asrwt>
<pdfrwt beam="1">  1       21 0.63057095E-02 0.30000000E+03</pdfrwt>
<pdfrwt beam="2">0</pdfrwt>
<totfact> 0.19339107E+04</totfact>
</mgrwt>
</event>
<event>
 6    1  0.1273846E-001  0.3000000E+03  0.7818608E-02  0.1093470E+00
         21   -1    0    0  501  502  0.00000000000E+00  0.00000000000E+00  0.21146099954E+01  0.21146099954E+01  0.00000000000E+00 0. -1.
         13   -1    0    0    0    0 -0.00000000000E+00 -0.00000000000E+00 -0.10000000000E+04  0.10000000000E+04  0.00000000000E+00 0.  1.
    9000005    2    1    2  501    0  0.38241009206E+02 -0.26139111100E+01 -0.77346384031E+03  0.77444326950E+03  0.68452967566E+01 0.  0.
         13    1    3    3    0    0  0.34675053647E+02 -0.13563841485E+01 -0.65443284452E+03  0.65535223134E+03  0.00000000000E+00 0.  1.
          3    1    3    3  501    0  0.35659555590E+01 -0.12575269615E+01 -0.11903099579E+03  0.11909103817E+03  0.00000000000E+00 0.  1.
         -1    1    1    2    0  502 -0.38241009206E+02  0.26139111100E+01 -0.22442154969E+03  0.22767134049E+03  0.00000000000E+00 0. -1.
<mgrwt>
<rscale>  1 0.30000000E+03</rscale>
<asrwt>0</asrwt>
<pdfrwt beam="1">  1       21 0.76895071E-02 0.30000000E+03</pdfrwt>
<pdfrwt beam="2">0</pdfrwt>
<totfact> 0.13692619E+04</totfact>
</mgrwt>
</event>
<event>
 6    1  0.1273846E-001  0.3000000E+03  0.7818608E-02  0.1093470E+00
         21   -1    0    0  501  502  0.00000000000E+00  0.00000000000E+00  0.18443341190E+01  0.18443341190E+01  0.00000000000E+00 0. -1.
         13   -1    0    0    0    0 -0.00000000000E+00 -0.00000000000E+00 -0.10000000000E+04  0.10000000000E+04  0.00000000000E+00 0.  1.
    9000005    2    1    2  501    0 -0.30144765720E+02  0.92458184129E+01 -0.83875596710E+03  0.83935600829E+03  0.35699093118E+01 0.  0.
         13    1    3    3    0    0 -0.17911906316E+01  0.11297008558E+00 -0.70307218654E+02  0.70330122430E+02  0.00000000000E+00 0.  1.
          1    1    3    3  501    0 -0.28353575088E+02  0.91328483273E+01 -0.76844874844E+03  0.76902588586E+03  0.00000000000E+00 0.  1.
         -3    1    1    2    0  502  0.30144765720E+02 -0.92458184129E+01 -0.15939969878E+03  0.16248832583E+03  0.00000000000E+00 0. -1.
<mgrwt>
<rscale>  1 0.30000000E+03</rscale>
<asrwt>0</asrwt>
<pdfrwt beam="1">  1       21 0.67066837E-02 0.30000000E+03</pdfrwt>
<pdfrwt beam="2">0</pdfrwt>
<totfact> 0.17381091E+04</totfact>
</mgrwt>
</event>
<event>
 6    1  0.1273846E-001  0.3000000E+03  0.7818608E-02  0.1093470E+00
         21   -1    0    0  501  502  0.00000000000E+00  0.00000000000E+00  0.59248402738E+01  0.59248402738E+01  0.00000000000E+00 0. -1.
         13   -1    0    0    0    0 -0.00000000000E+00 -0.00000000000E+00 -0.10000000000E+04  0.10000000000E+04  0.00000000000E+00 0.  1.
    9000005    2    1    2  501    0  0.41410206678E+02 -0.10344974259E+02 -0.91554018943E+03  0.91654047213E+03  0.32825105666E+01 0.  0.
         13    1    3    3    0    0  0.21955297906E+01 -0.10615200016E+01 -0.65966549285E+02  0.66011611102E+02  0.00000000000E+00 0.  1.
          3    1    3    3  501    0  0.39214676887E+02 -0.92834542569E+01 -0.84957364015E+03  0.85052886103E+03  0.00000000000E+00 0.  1.
         -1    1    1    2    0  502 -0.41410206678E+02  0.10344974259E+02 -0.78534970293E+02  0.89384368144E+02  0.00000000000E+00 0. -1.
<mgrwt>
<rscale>  1 0.30000000E+03</rscale>
<asrwt>0</asrwt>
<pdfrwt beam="1">  1       21 0.21544919E-01 0.30000000E+03</pdfrwt>
<pdfrwt beam="2">0</pdfrwt>
<totfact> 0.20805796E+03</totfact>
</mgrwt>
</event>
<event>
 6    1  0.1273846E-001  0.3000000E+03  0.7818608E-02  0.1093470E+00
         21   -1    0    0  501  502  0.00000000000E+00  0.00000000000E+00  0.18635770392E+01  0.18635770392E+01  0.00000000000E+00 0. -1.
         13   -1    0    0    0    0 -0.00000000000E+00 -0.00000000000E+00 -0.10000000000E+04  0.10000000000E+04  0.00000000000E+00 0.  1.
    9000005    2    1    2  501    0  0.37124896726E+02 -0.14227808539E+02 -0.69260907390E+03  0.69376026723E+03  0.39103250752E+01 0.  0.
         13    1    3    3    0    0  0.88885183695E-01 -0.34083879248E+00 -0.37363208113E+01  0.37528875367E+01  0.00000000000E+00 0.  1.
          3    1    3    3  501    0  0.37036011543E+02 -0.13886969747E+02 -0.68887275309E+03  0.69000737969E+03  0.00000000000E+00 0.  1.
         -1    1    1    2    0  502 -0.37124896726E+02  0.14227808539E+02 -0.30552734906E+03  0.30810330981E+03  0.00000000000E+00 0. -1.
<mgrwt>
<rscale>  1 0.30000000E+03</rscale>
<asrwt>0</asrwt>
<pdfrwt beam="1">  1       21 0.67766581E-02 0.30000000E+03</pdfrwt>
<pdfrwt beam="2">0</pdfrwt>
<totfact> 0.17070810E+04</totfact>
</mgrwt>
</event>
<event>
 6    1  0.1273846E-001  0.3000000E+03  0.7818608E-02  0.1093470E+00
         21   -1    0    0  501  502  0.00000000000E+00  0.00000000000E+00  0.12415272573E+01  0.12415272573E+01  0.00000000000E+00 0. -1.
         13   -1    0    0    0    0 -0.00000000000E+00 -0.00000000000E+00 -0.10000000000E+04  0.10000000000E+04  0.00000000000E+00 0.  1.
    9000005    2    1    2  501    0 -0.33545715734E+02  0.90068547579E+01 -0.54232385253E+03  0.54348722525E+03  0.75342226605E+01 0.  0.
         13    1    3    3    0    0 -0.29327507599E+02  0.54593875053E+01 -0.43474853845E+03  0.43577081052E+03  0.00000000000E+00 0.  1.
          1    1    3    3  501    0 -0.42182081357E+01  0.35474672525E+01 -0.10757531408E+03  0.10771641474E+03  0.00000000000E+00 0.  1.
         -1    1    1    2    0  502  0.33545715734E+02 -0.90068547579E+01 -0.45643462021E+03  0.45775430200E+03  0.00000000000E+00 0. -1.
<mgrwt>
<rscale>  1 0.30000000E+03</rscale>
<asrwt>0</asrwt>
<pdfrwt beam="1">  1       21 0.45146541E-02 0.30000000E+03</pdfrwt>
<pdfrwt beam="2">0</pdfrwt>
<totfact> 0.34268584E+04</totfact>
</mgrwt>
</event>
<event>
 6    1  0.1273846E-001  0.3000000E+03  0.7818608E-02  0.1093470E+00
         21   -1    0    0  501  502  0.00000000000E+00  0.00000000000E+00  0.15585299328E+01  0.15585299328E+01  0.00000000000E+00 0. -1.
         13   -1    0    0    0    0 -0.00000000000E+00 -0.00000000000E+00 -0.10000000000E+04  0.10000000000E+04  0.00000000000E+00 0.  1.
    9000005    2    1    2  501    0  0.23289808990E+00  0.39215412357E+02 -0.54606447575E+03  0.54748491498E+03  0.39265312712E+01 0.  0.
         13    1    3    3    0    0  0.85448796795E+00  0.34765041780E+02 -0.49696784863E+03  0.49818307965E+03  0.00000000000E+00 0.  1.
          3    1    3    3  501    0 -0.62158987805E+00  0.44503705770E+01 -0.49096627126E+02  0.49301835335E+02  0.00000000000E+00 0.  1.
         -1    1    1    2    0  502 -0.23289808990E+00 -0.39215412357E+02 -0.45237699431E+03  0.45407361495E+03  0.00000000000E+00 0. -1.
<mgrwt>
<rscale>  1 0.30000000E+03</rscale>
<asrwt>0</asrwt>
<pdfrwt beam="1">  1       21 0.56673935E-02 0.30000000E+03</pdfrwt>
<pdfrwt beam="2">0</pdfrwt>
<totfact> 0.23246397E+04</totfact>
</mgrwt>
</event>
<event>
 6    1  0.1273846E-001  0.3000000E+03  0.7818608E-02  0.1093470E+00
         21   -1    0    0  501  502  0.00000000000E+00  0.00000000000E+00  0.17177626877E+01  0.17177626877E+01  0.00000000000E+00 0. -1.
         13   -1    0    0    0    0 -0.00000000000E+00 -0.00000000000E+00 -0.10000000000E+04  0.10000000000E+04  0.00000000000E+00 0.  1.
    9000005    2    1    2  501    0 -0.37710068638E+02 -0.98072469420E+01 -0.66743653900E+03  0.66858549547E+03  0.40987550018E+01 0.  0.
         13    1    3    3    0    0 -0.19288968661E+02 -0.64254835817E+01 -0.37338970918E+03  0.37394281123E+03  0.00000000000E+00 0.  1.
          1    1    3    3  501    0 -0.18421099977E+02 -0.33817633603E+01 -0.29404682981E+03  0.29464268423E+03  0.00000000000E+00 0.  1.
         -3    1    1    2    0  502  0.37710068638E+02  0.98072469420E+01 -0.33084569832E+03  0.33313226722E+03  0.00000000000E+00 0. -1.
<mgrwt>
<rscale>  1 0.30000000E+03</rscale>
<asrwt>0</asrwt>
<pdfrwt beam="1">  1       21 0.62464229E-02 0.30000000E+03</pdfrwt>
<pdfrwt beam="2">0</pdfrwt>
<totfact> 0.19657401E+04</totfact>
</mgrwt>
</event>
<event>
 6    1  0.1273846E-001  0.3000000E+03  0.7818608E-02  0.1093470E+00
         21   -1    0    0  501  502  0.00000000000E+00  0.00000000000E+00  0.49074705022E+01  0.49074705022E+01  0.00000000000E+00 0. -1.
         13   -1    0    0    0    0 -0.00000000000E+00 -0.00000000000E+00 -0.10000000000E+04  0.10000000000E+04  0.00000000000E+00 0.  1.
    9000005    2    1    2  501    0  0.42219605097E+02  0.13070149474E+02 -0.88727697774E+03  0.88838486727E+03  0.37300557162E+01 0.  0.
         13    1    3    3    0    0  0.24569220065E+02  0.92989580961E+01 -0.50854387181E+03  0.50922194252E+03  0.00000000000E+00 0.  1.
          1    1    3    3  501    0  0.17650385033E+02  0.37711913783E+01 -0.37873310593E+03  0.37916292475E+03  0.00000000000E+00 0.  1.
         -1    1    1    2    0  502 -0.42219605097E+02 -0.13070149474E+02 -0.10781555176E+03  0.11652260323E+03  0.00000000000E+00 0. -1.
<mgrwt>
<rscale>  1 0.30000000E+03</rscale>
<asrwt>0</asrwt>
<pdfrwt beam="1">  1       21 0.17845385E-01 0.30000000E+03</pdfrwt>
<pdfrwt beam="2">0</pdfrwt>
<totfact> 0.29775179E+03</totfact>
</mgrwt>
</event>
<event>
 6    1  0.1273846E-001  0.3000000E+03  0.7818608E-02  0.1093470E+00
         21   -1    0    0  501  502  0.00000000000E+00  0.00000000000E+00  0.27533478647E+01  0.27533478647E+01  0.00000000000E+00 0. -1.
         13   -1    0    0    0    0 -0.00000000000E+00 -0.00000000000E+00 -0.10000000000E+04  0.10000000000E+04  0.00000000000E+00 0.  1.
    9000005    2    1    2  501    0 -0.19401102426E+02  0.33858975371E+02 -0.83353933894E+03  0.83445920839E+03  0.33923317773E+01 0.  0.
         13    1    3    3    0    0 -0.15186918160E+02  0.23484758154E+02 -0.58870664509E+03  0.58937058827E+03  0.00000000000E+00 0.  1.
          3    1    3    3  501    0 -0.42141842660E+01  0.10374217217E+02 -0.24483269385E+03  0.24508862011E+03  0.00000000000E+00 0.  1.
         -1    1    1    2    0  502  0.19401102426E+02 -0.33858975371E+02 -0.16370731319E+03  0.16829413948E+03  0.00000000000E+00 0. -1.
<mgrwt>
<rscale>  1 0.30000000E+03</rscale>
<asrwt>0</asrwt>
<pdfrwt beam="1">  1       21 0.10012195E-01 0.30000000E+03</pdfrwt>
<pdfrwt beam="2">0</pdfrwt>
<totfact> 0.85844818E+03</totfact>
</mgrwt>
</event>
<event>
 6    1  0.1273846E-001  0.3000000E+03  0.7818608E-02  0.1093470E+00
         21   -1    0    0  501  502  0.00000000000E+00  0.00000000000E+00  0.11115622624E+01  0.11115622624E+01  0.00000000000E+00 0. -1.
         13   -1    0    0    0    0 -0.00000000000E+00 -0.00000000000E+00 -0.10000000000E+04  0.10000000000E+04  0.00000000000E+00 0.  1.
    9000005    2    1    2  501    0 -0.13395295484E+02 -0.27785841150E+02 -0.68782692193E+03  0.68852436879E+03  0.29060229687E+01 0.  0.
         13    1    3    3    0    0 -0.12998518758E+01 -0.26756015515E+01 -0.87990117449E+02  0.88040384071E+02  0.00000000000E+00 0.  1.
          1    1    3    3  501    0 -0.12095443609E+02 -0.25110239599E+02 -0.59983680448E+03  0.60048398472E+03  0.00000000000E+00 0.  1.
         -1    1    1    2    0  502  0.13395295484E+02  0.27785841150E+02 -0.31106151581E+03  0.31258719348E+03  0.00000000000E+00 0. -1.
<mgrwt>
<rscale>  1 0.30000000E+03</rscale>
<asrwt>0</asrwt>
<pdfrwt beam="1">  1       21 0.40420531E-02 0.30000000E+03</pdfrwt>
<pdfrwt beam="2">0</pdfrwt>
<totfact> 0.41313063E+04</totfact>
</mgrwt>
</event>
<event>
 6    1  0.1273846E-001  0.3000000E+03  0.7818608E-02  0.1093470E+00
         21   -1    0    0  501  502  0.00000000000E+00  0.00000000000E+00  0.73531681517E+01  0.73531681517E+01  0.00000000000E+00 0. -1.
         13   -1    0    0    0    0 -0.00000000000E+00 -0.00000000000E+00 -0.10000000000E+04  0.10000000000E+04  0.00000000000E+00 0.  1.
    9000005    2    1    2  501    0  0.42554889601E+02  0.60392353189E+02 -0.75169450724E+03  0.75532900723E+03  0.43728709533E+01 0.  0.
         13    1    3    3    0    0  0.34197790416E+02  0.50879251219E+02 -0.63231971993E+03  0.63528451522E+03  0.00000000000E+00 0.  1.
          1    1    3    3  501    0  0.83570991848E+01  0.95131019697E+01 -0.11937478731E+03  0.12004449201E+03  0.00000000000E+00 0.  1.
         -3    1    1    2    0  502 -0.42554889601E+02 -0.60392353189E+02 -0.24095232461E+03  0.25202416092E+03  0.00000000000E+00 0. -1.
<mgrwt>
<rscale>  1 0.30000000E+03</rscale>
<asrwt>0</asrwt>
<pdfrwt beam="1">  1       21 0.26738850E-01 0.30000000E+03</pdfrwt>
<pdfrwt beam="2">0</pdfrwt>
<totfact> 0.13664451E+03</totfact>
</mgrwt>
</event>
<event>
 6    1  0.1273846E-001  0.3000000E+03  0.7818608E-02  0.1093470E+00
         21   -1    0    0  501  502  0.00000000000E+00  0.00000000000E+00  0.20273572303E+01  0.20273572303E+01  0.00000000000E+00 0. -1.
         13   -1    0    0    0    0 -0.00000000000E+00 -0.00000000000E+00 -0.10000000000E+04  0.10000000000E+04  0.00000000000E+00 0.  1.
    9000005    2    1    2  501    0  0.40431196860E+01 -0.35104370203E+02 -0.80913205934E+03  0.80990908748E+03  0.30621719250E+01 0.  0.
         13    1    3    3    0    0  0.12253916903E+00 -0.90670339197E+01 -0.23028790834E+03  0.23046636815E+03  0.00000000000E+00 0.  1.
          1    1    3    3  501    0  0.39205805169E+01 -0.26037336283E+02 -0.57884415100E+03  0.57944271933E+03  0.00000000000E+00 0.  1.
         -1    1    1    2    0  502 -0.40431196860E+01  0.35104370203E+02 -0.18884058343E+03  0.19211826975E+03  0.00000000000E+00 0. -1.
<mgrwt>
<rscale>  1 0.30000000E+03</rscale>
<asrwt>0</asrwt>
<pdfrwt beam="1">  1       21 0.73722237E-02 0.30000000E+03</pdfrwt>
<pdfrwt beam="2">0</pdfrwt>
<totfact> 0.14741114E+04</totfact>
</mgrwt>
</event>
<event>
 6    1  0.1273846E-001  0.3000000E+03  0.7818608E-02  0.1093470E+00
         21   -1    0    0  501  502  0.00000000000E+00  0.00000000000E+00  0.22216232695E+01  0.22216232695E+01  0.00000000000E+00 0. -1.
         13   -1    0    0    0    0 -0.00000000000E+00 -0.00000000000E+00 -0.10000000000E+04  0.10000000000E+04  0.00000000000E+00 0.  1.
    9000005    2    1    2  501    0  0.37173231775E+02  0.96953607843E+01 -0.78857466552E+03  0.78951985561E+03  0.39686421797E+01 0.  0.
         13    1    3    3    0    0  0.21610084328E+02  0.64243695995E+01 -0.42499524023E+03  0.42559278952E+03  0.00000000000E+00 0.  1.
          3    1    3    3  501    0  0.15563147447E+02  0.32709911849E+01 -0.36357942529E+03  0.36392706609E+03  0.00000000000E+00 0.  1.
         -1    1    1    2    0  502 -0.37173231775E+02 -0.96953607843E+01 -0.20920371121E+03  0.21270176766E+03  0.00000000000E+00 0. -1.
<mgrwt>
<rscale>  1 0.30000000E+03</rscale>
<asrwt>0</asrwt>
<pdfrwt beam="1">  1       21 0.80786471E-02 0.30000000E+03</pdfrwt>
<pdfrwt beam="2">0</pdfrwt>
<totfact> 0.12556187E+04</totfact>
</mgrwt>
</event>
<event>
 6    1  0.1273846E-001  0.3000000E+03  0.7818608E-02  0.1093470E+00
         21   -1    0    0  501  502  0.00000000000E+00  0.00000000000E+00  0.85904821851E+01  0.85904821851E+01  0.00000000000E+00 0. -1.
         13   -1    0    0    0    0 -0.00000000000E+00 -0.00000000000E+00 -0.10000000000E+04  0.10000000000E+04  0.00000000000E+00 0.  1.
    9000005    2    1    2  501    0 -0.47851677424E+02 -0.44756191301E+02 -0.85231739212E+03  0.85483899724E+03  0.34459544364E+01 0.  0.
         13    1    3    3    0    0 -0.74619357012E+01 -0.61437816484E+01 -0.11251008207E+03  0.11292451065E+03  0.00000000000E+00 0.  1.
          3    1    3    3  501    0 -0.40389741723E+02 -0.38612409653E+02 -0.73980731005E+03  0.74191448660E+03  0.00000000000E+00 0.  1.
         -3    1    1    2    0  502  0.47851677424E+02  0.44756191301E+02 -0.13909212569E+03  0.15375148494E+03  0.00000000000E+00 0. -1.
<mgrwt>
<rscale>  1 0.30000000E+03</rscale>
<asrwt>0</asrwt>
<pdfrwt beam="1">  1       21 0.31238183E-01 0.30000000E+03</pdfrwt>
<pdfrwt beam="2">0</pdfrwt>
<totfact> 0.10025279E+03</totfact>
</mgrwt>
</event>
<event>
 6    1  0.1273846E-001  0.3000000E+03  0.7818608E-02  0.1093470E+00
         21   -1    0    0  501  502  0.00000000000E+00  0.00000000000E+00  0.56077342971E+01  0.56077342971E+01  0.00000000000E+00 0. -1.
         13   -1    0    0    0    0 -0.00000000000E+00 -0.00000000000E+00 -0.10000000000E+04  0.10000000000E+04  0.00000000000E+00 0.  1.
    9000005    2    1    2  501    0 -0.24861198498E+02  0.68165598871E+02 -0.61837493501E+03  0.62265387149E+03  0.67568756150E+01 0.  0.
         13    1    3    3    0    0 -0.14670950470E+01  0.91523257241E+01 -0.91559706698E+02  0.92027698682E+02  0.00000000000E+00 0.  1.
          1    1    3    3  501    0 -0.23394103451E+02  0.59013273147E+02 -0.52681522831E+03  0.53062617281E+03  0.00000000000E+00 0.  1.
         -1    1    1    2    0  502  0.24861198498E+02 -0.68165598871E+02 -0.37601733069E+03  0.38295386281E+03  0.00000000000E+00 0. -1.
<mgrwt>
<rscale>  1 0.30000000E+03</rscale>
<asrwt>0</asrwt>
<pdfrwt beam="1">  1       21 0.20391804E-01 0.30000000E+03</pdfrwt>
<pdfrwt beam="2">0</pdfrwt>
<totfact> 0.23119124E+03</totfact>
</mgrwt>
</event>
<event>
 6    1  0.1273846E-001  0.3000000E+03  0.7818608E-02  0.1093470E+00
         21   -1    0    0  501  502  0.00000000000E+00  0.00000000000E+00  0.32742877875E+01  0.32742877875E+01  0.00000000000E+00 0. -1.
         13   -1    0    0    0    0 -0.00000000000E+00 -0.00000000000E+00 -0.10000000000E+04  0.10000000000E+04  0.00000000000E+00 0.  1.
    9000005    2    1    2  501    0  0.85596454262E+01 -0.29756890357E+02 -0.92013744207E+03  0.92066373654E+03  0.31722914045E+01 0.  0.
         13    1    3    3    0    0  0.35158110084E+01 -0.17104850112E+02 -0.49283233843E+03  0.49314161316E+03  0.00000000000E+00 0.  1.
          3    1    3    3  501    0  0.50438344178E+01 -0.12652040245E+02 -0.42730510363E+03  0.42752212338E+03  0.00000000000E+00 0.  1.
         -1    1    1    2    0  502 -0.85596454262E+01  0.29756890357E+02 -0.76588270144E+02  0.82610551246E+02  0.00000000000E+00 0. -1.
<mgrwt>
<rscale>  1 0.30000000E+03</rscale>
<asrwt>0</asrwt>
<pdfrwt beam="1">  1       21 0.11906526E-01 0.30000000E+03</pdfrwt>
<pdfrwt beam="2">0</pdfrwt>
<totfact> 0.62856604E+03</totfact>
</mgrwt>
</event>
<event>
 6    1  0.1273846E-001  0.3000000E+03  0.7818608E-02  0.1093470E+00
         21   -1    0    0  501  502  0.00000000000E+00  0.00000000000E+00  0.49636772470E+01  0.49636772470E+01  0.00000000000E+00 0. -1.
         13   -1    0    0    0    0 -0.00000000000E+00 -0.00000000000E+00 -0.10000000000E+04  0.10000000000E+04  0.00000000000E+00 0.  1.
    9000005    2    1    2  501    0  0.29132628263E+02  0.19595745335E+02 -0.93310591077E+03  0.93377323412E+03  0.36206038776E+01 0.  0.
         13    1    3    3    0    0  0.31993008951E+01  0.18665844694E+01 -0.73131278785E+02  0.73225020317E+02  0.00000000000E+00 0.  1.
          1    1    3    3  501    0  0.25933327368E+02  0.17729160866E+02 -0.85997463199E+03  0.86054821380E+03  0.00000000000E+00 0.  1.
         -3    1    1    2    0  502 -0.29132628263E+02 -0.19595745335E+02 -0.61930411980E+02  0.71190443128E+02  0.00000000000E+00 0. -1.
<mgrwt>
<rscale>  1 0.30000000E+03</rscale>
<asrwt>0</asrwt>
<pdfrwt beam="1">  1       21 0.18049774E-01 0.30000000E+03</pdfrwt>
<pdfrwt beam="2">0</pdfrwt>
<totfact> 0.29143534E+03</totfact>
</mgrwt>
</event>
<event>
 6    1  0.1273846E-001  0.3000000E+03  0.7818608E-02  0.1093470E+00
         21   -1    0    0  501  502  0.00000000000E+00  0.00000000000E+00  0.14211224771E+01  0.14211224771E+01  0.00000000000E+00 0. -1.
         13   -1    0    0    0    0 -0.00000000000E+00 -0.00000000000E+00 -0.10000000000E+04  0.10000000000E+04  0.00000000000E+00 0.  1.
    9000005    2    1    2  501    0  0.79491471665E+00  0.30746065069E+02 -0.78714155161E+03  0.78775854926E+03  0.50751597924E+01 0.  0.
         13    1    3    3    0    0  0.18318566699E+00  0.25807975473E+02 -0.60725381869E+03  0.60780201173E+03  0.00000000000E+00 0.  1.
          1    1    3    3  501    0  0.61172904967E+00  0.49380895954E+01 -0.17988773292E+03  0.17995653752E+03  0.00000000000E+00 0.  1.
         -3    1    1    2    0  502 -0.79491471665E+00 -0.30746065069E+02 -0.21143732591E+03  0.21366257322E+03  0.00000000000E+00 0. -1.
<mgrwt>
<rscale>  1 0.30000000E+03</rscale>
<asrwt>0</asrwt>
<pdfrwt beam="1">  1       21 0.51677290E-02 0.30000000E+03</pdfrwt>
<pdfrwt beam="2">0</pdfrwt>
<totfact> 0.27227862E+04</totfact>
</mgrwt>
</event>
<event>
 6    1  0.1273846E-001  0.3000000E+03  0.7818608E-02  0.1093470E+00
         21   -1    0    0  501  502  0.00000000000E+00  0.00000000000E+00  0.10422267502E+01  0.10422267502E+01  0.00000000000E+00 0. -1.
         13   -1    0    0    0    0 -0.00000000000E+00 -0.00000000000E+00 -0.10000000000E+04  0.10000000000E+04  0.00000000000E+00 0.  1.
    9000005    2    1    2  501    0  0.93663418851E+01 -0.30766461454E+02 -0.52481913163E+03  0.52581411838E+03  0.33260560889E+01 0.  0.
         13    1    3    3    0    0  0.67716827287E+01 -0.25982656770E+02 -0.42622934014E+03  0.42707423773E+03  0.00000000000E+00 0.  1.
          1    1    3    3  501    0  0.25946591565E+01 -0.47838046844E+01 -0.98589791496E+02  0.98739880649E+02  0.00000000000E+00 0.  1.
         -1    1    1    2    0  502 -0.93663418851E+01  0.30766461454E+02 -0.47413864162E+03  0.47522810837E+03  0.00000000000E+00 0. -1.
<mgrwt>
<rscale>  1 0.30000000E+03</rscale>
<asrwt>0</asrwt>
<pdfrwt beam="1">  1       21 0.37899234E-02 0.30000000E+03</pdfrwt>
<pdfrwt beam="2">0</pdfrwt>
<totfact> 0.46041010E+04</totfact>
</mgrwt>
</event>
<event>
 6    1  0.1273846E-001  0.3000000E+03  0.7818608E-02  0.1093470E+00
         21   -1    0    0  501  502  0.00000000000E+00  0.00000000000E+00  0.16274962360E+01  0.16274962360E+01  0.00000000000E+00 0. -1.
         13   -1    0    0    0    0 -0.00000000000E+00 -0.00000000000E+00 -0.10000000000E+04  0.10000000000E+04  0.00000000000E+00 0.  1.
    9000005    2    1    2  501    0  0.38957520316E+02  0.87370244214E+01 -0.43399494314E+03  0.43583950156E+03  0.32305515028E+01 0.  0.
         13    1    3    3    0    0  0.33413740082E+02  0.63123320010E+01 -0.36804986515E+03  0.36961740597E+03  0.00000000000E+00 0.  1.
          3    1    3    3  501    0  0.55437802346E+01  0.24246924204E+01 -0.65945077987E+02  0.66222095583E+02  0.00000000000E+00 0.  1.
         -1    1    1    2    0  502 -0.38957520316E+02 -0.87370244214E+01 -0.56437756063E+03  0.56578799468E+03  0.00000000000E+00 0. -1.
<mgrwt>
<rscale>  1 0.30000000E+03</rscale>
<asrwt>0</asrwt>
<pdfrwt beam="1">  1       21 0.59181806E-02 0.30000000E+03</pdfrwt>
<pdfrwt beam="2">0</pdfrwt>
<totfact> 0.21576462E+04</totfact>
</mgrwt>
</event>
<event>
 6    1  0.1273846E-001  0.3000000E+03  0.7818608E-02  0.1093470E+00
         21   -1    0    0  501  502  0.00000000000E+00  0.00000000000E+00  0.11203125681E+01  0.11203125681E+01  0.00000000000E+00 0. -1.
         13   -1    0    0    0    0 -0.00000000000E+00 -0.00000000000E+00 -0.10000000000E+04  0.10000000000E+04  0.00000000000E+00 0.  1.
    9000005    2    1    2  501    0 -0.17590703379E+02 -0.24491435734E+02 -0.28630291989E+03  0.28790581965E+03  0.33370316746E+01 0.  0.
         13    1    3    3    0    0 -0.75166912465E+01 -0.92883598555E+01 -0.12767643629E+03  0.12823434274E+03  0.00000000000E+00 0.  1.
          1    1    3    3  501    0 -0.10074012133E+02 -0.15203075879E+02 -0.15862648361E+03  0.15967147691E+03  0.00000000000E+00 0.  1.
         -3    1    1    2    0  502  0.17590703379E+02  0.24491435734E+02 -0.71257676754E+03  0.71321449291E+03  0.00000000000E+00 0. -1.
<mgrwt>
<rscale>  1 0.30000000E+03</rscale>
<asrwt>0</asrwt>
<pdfrwt beam="1">  1       21 0.40738725E-02 0.30000000E+03</pdfrwt>
<pdfrwt beam="2">0</pdfrwt>
<totfact> 0.40770710E+04</totfact>
</mgrwt>
</event>
<event>
 6    1  0.1273846E-001  0.3000000E+03  0.7818608E-02  0.1093470E+00
         21   -1    0    0  501  502  0.00000000000E+00  0.00000000000E+00  0.32419773503E+01  0.32419773503E+01  0.00000000000E+00 0. -1.
         13   -1    0    0    0    0 -0.00000000000E+00 -0.00000000000E+00 -0.10000000000E+04  0.10000000000E+04  0.00000000000E+00 0.  1.
    9000005    2    1    2  501    0  0.43523750901E+02 -0.23940021893E+02 -0.74299183839E+03  0.74465984762E+03  0.37383427540E+01 0.  0.
         13    1    3    3    0    0  0.20485688632E+02 -0.12916874030E+02 -0.34393781855E+03  0.34478940254E+03  0.00000000000E+00 0.  1.
          3    1    3    3  501    0  0.23038062269E+02 -0.11023147863E+02 -0.39905401984E+03  0.39987044509E+03  0.00000000000E+00 0.  1.
         -3    1    1    2    0  502 -0.43523750901E+02  0.23940021893E+02 -0.25376618426E+03  0.25858212973E+03  0.00000000000E+00 0. -1.
<mgrwt>
<rscale>  1 0.30000000E+03</rscale>
<asrwt>0</asrwt>
<pdfrwt beam="1">  1       21 0.11789033E-01 0.30000000E+03</pdfrwt>
<pdfrwt beam="2">0</pdfrwt>
<totfact> 0.63996495E+03</totfact>
</mgrwt>
</event>
<event>
 6    1  0.1273846E-001  0.3000000E+03  0.7818608E-02  0.1093470E+00
         21   -1    0    0  501  502  0.00000000000E+00  0.00000000000E+00  0.13923123810E+01  0.13923123810E+01  0.00000000000E+00 0. -1.
         13   -1    0    0    0    0 -0.00000000000E+00 -0.00000000000E+00 -0.10000000000E+04  0.10000000000E+04  0.00000000000E+00 0.  1.
    9000005    2    1    2  501    0 -0.18138398171E+02 -0.27694872545E+02 -0.72901916287E+03  0.72977865269E+03  0.34546547206E+01 0.  0.
         13    1    3    3    0    0 -0.76277530081E+01 -0.11934681004E+02 -0.27513134322E+03  0.27549569007E+03  0.00000000000E+00 0.  1.
          1    1    3    3  501    0 -0.10510645162E+02 -0.15760191541E+02 -0.45388781965E+03  0.45428296262E+03  0.00000000000E+00 0.  1.
         -3    1    1    2    0  502  0.18138398171E+02  0.27694872545E+02 -0.26958852475E+03  0.27161365969E+03  0.00000000000E+00 0. -1.
<mgrwt>
<rscale>  1 0.30000000E+03</rscale>
<asrwt>0</asrwt>
<pdfrwt beam="1">  1       21 0.50629648E-02 0.30000000E+03</pdfrwt>
<pdfrwt beam="2">0</pdfrwt>
<totfact> 0.28196471E+04</totfact>
</mgrwt>
</event>
<event>
 6    1  0.1273846E-001  0.3000000E+03  0.7818608E-02  0.1093470E+00
         21   -1    0    0  501  502  0.00000000000E+00  0.00000000000E+00  0.21817348259E+01  0.21817348259E+01  0.00000000000E+00 0. -1.
         13   -1    0    0    0    0 -0.00000000000E+00 -0.00000000000E+00 -0.10000000000E+04  0.10000000000E+04  0.00000000000E+00 0.  1.
    9000005    2    1    2  501    0  0.30851683514E+02  0.13422027362E+02 -0.84620575740E+03  0.84688096307E+03  0.33473213921E+01 0.  0.
         13    1    3    3    0    0  0.21935833077E+02  0.11151342065E+02 -0.61092533548E+03  0.61142072155E+03  0.00000000000E+00 0.  1.
          3    1    3    3  501    0  0.89158504375E+01  0.22706852978E+01 -0.23528042192E+03  0.23546024152E+03  0.00000000000E+00 0.  1.
         -1    1    1    2    0  502 -0.30851683514E+02 -0.13422027362E+02 -0.15161250777E+03  0.15530077175E+03  0.00000000000E+00 0. -1.
<mgrwt>
<rscale>  1 0.30000000E+03</rscale>
<asrwt>0</asrwt>
<pdfrwt beam="1">  1       21 0.79335979E-02 0.30000000E+03</pdfrwt>
<pdfrwt beam="2">0</pdfrwt>
<totfact> 0.12962208E+04</totfact>
</mgrwt>
</event>
<event>
 6    1  0.1273846E-001  0.3000000E+03  0.7818608E-02  0.1093470E+00
         21   -1    0    0  501  502  0.00000000000E+00  0.00000000000E+00  0.17659284679E+01  0.17659284679E+01  0.00000000000E+00 0. -1.
         13   -1    0    0    0    0 -0.00000000000E+00 -0.00000000000E+00 -0.10000000000E+04  0.10000000000E+04  0.00000000000E+00 0.  1.
    9000005    2    1    2  501    0 -0.74161158766E+01 -0.31007591947E+02 -0.82509032596E+03  0.82571131716E+03  0.29434258032E+01 0.  0.
         13    1    3    3    0    0 -0.56929591657E+01 -0.26278442253E+02 -0.71668549147E+03  0.71718969596E+03  0.00000000000E+00 0.  1.
          3    1    3    3  501    0 -0.17231567109E+01 -0.47291496942E+01 -0.10840483450E+03  0.10852162120E+03  0.00000000000E+00 0.  1.
         -3    1    1    2    0  502  0.74161158766E+01  0.31007591947E+02 -0.17314374557E+03  0.17605461131E+03  0.00000000000E+00 0. -1.
<mgrwt>
<rscale>  1 0.30000000E+03</rscale>
<asrwt>0</asrwt>
<pdfrwt beam="1">  1       21 0.64215716E-02 0.30000000E+03</pdfrwt>
<pdfrwt beam="2">0</pdfrwt>
<totfact> 0.18739668E+04</totfact>
</mgrwt>
</event>
<event>
 6    1  0.1273846E-001  0.3000000E+03  0.7818608E-02  0.1093470E+00
         21   -1    0    0  501  502  0.00000000000E+00  0.00000000000E+00  0.19406169169E+01  0.19406169169E+01  0.00000000000E+00 0. -1.
         13   -1    0    0    0    0 -0.00000000000E+00 -0.00000000000E+00 -0.10000000000E+04  0.10000000000E+04  0.00000000000E+00 0.  1.
    9000005    2    1    2  501    0  0.34239492654E+02  0.24777776621E+02 -0.36030965503E+03  0.36279196699E+03  0.29466477846E+01 0.  0.
         13    1    3    3    0    0  0.15803951559E+02  0.96446937255E+01 -0.15601688247E+03  0.15711159288E+03  0.00000000000E+00 0.  1.
          1    1    3    3  501    0  0.18435541095E+02  0.15133082895E+02 -0.20429277256E+03  0.20568037411E+03  0.00000000000E+00 0.  1.
         -3    1    1    2    0  502 -0.34239492654E+02 -0.24777776621E+02 -0.63774972805E+03  0.63914864993E+03  0.00000000000E+00 0. -1.
<mgrwt>
<rscale>  1 0.30000000E+03</rscale>
<asrwt>0</asrwt>
<pdfrwt beam="1">  1       21 0.70568037E-02 0.30000000E+03</pdfrwt>
<pdfrwt beam="2">0</pdfrwt>
<totfact> 0.15909851E+04</totfact>
</mgrwt>
</event>
<event>
 6    1  0.1273846E-001  0.3000000E+03  0.7818608E-02  0.1093470E+00
         21   -1    0    0  501  502  0.00000000000E+00  0.00000000000E+00  0.61070161786E+01  0.61070161786E+01  0.00000000000E+00 0. -1.
         13   -1    0    0    0    0 -0.00000000000E+00 -0.00000000000E+00 -0.10000000000E+04  0.10000000000E+04  0.00000000000E+00 0.  1.
    9000005    2    1    2  501    0 -0.65124204087E+02  0.29193517277E+01 -0.77417932159E+03  0.77692634958E+03  0.33535232946E+01 0.  0.
         13    1    3    3    0    0 -0.57990486145E+02  0.22795222330E+01 -0.67649869382E+03  0.67898348687E+03  0.00000000000E+00 0.  1.
          3    1    3    3  501    0 -0.71337179419E+01  0.63982949471E+00 -0.97680627771E+02  0.97942862706E+02  0.00000000000E+00 0.  1.
         -3    1    1    2    0  502  0.65124204087E+02 -0.29193517277E+01 -0.21971366223E+03  0.22918066660E+03  0.00000000000E+00 0. -1.
<mgrwt>
<rscale>  1 0.30000000E+03</rscale>
<asrwt>0</asrwt>
<pdfrwt beam="1">  1       21 0.22207378E-01 0.30000000E+03</pdfrwt>
<pdfrwt beam="2">0</pdfrwt>
<totfact> 0.19627971E+03</totfact>
</mgrwt>
</event>
<event>
 6    1  0.1273846E-001  0.3000000E+03  0.7818608E-02  0.1093470E+00
         21   -1    0    0  501  502  0.00000000000E+00  0.00000000000E+00  0.21505356181E+01  0.21505356181E+01  0.00000000000E+00 0. -1.
         13   -1    0    0    0    0 -0.00000000000E+00 -0.00000000000E+00 -0.10000000000E+04  0.10000000000E+04  0.00000000000E+00 0.  1.
    9000005    2    1    2  501    0 -0.39483968594E+02 -0.71045154309E+01 -0.74950513515E+03  0.75058669923E+03  0.36038219953E+01 0.  0.
         13    1    3    3    0    0 -0.23860585706E+02 -0.39963081786E+01 -0.41892472213E+03  0.41962271250E+03  0.00000000000E+00 0.  1.
          1    1    3    3  501    0 -0.15623382888E+02 -0.31082072523E+01 -0.33058041302E+03  0.33096398674E+03  0.00000000000E+00 0.  1.
         -3    1    1    2    0  502  0.39483968594E+02  0.71045154309E+01 -0.24834432923E+03  0.25156383639E+03  0.00000000000E+00 0. -1.
<mgrwt>
<rscale>  1 0.30000000E+03</rscale>
<asrwt>0</asrwt>
<pdfrwt beam="1">  1       21 0.78201460E-02 0.30000000E+03</pdfrwt>
<pdfrwt beam="2">0</pdfrwt>
<totfact> 0.13294036E+04</totfact>
</mgrwt>
</event>
<event>
 6    1  0.1273846E-001  0.3000000E+03  0.7818608E-02  0.1093470E+00
         21   -1    0    0  501  502  0.00000000000E+00  0.00000000000E+00  0.44458061587E+01  0.44458061587E+01  0.00000000000E+00 0. -1.
         13   -1    0    0    0    0 -0.00000000000E+00 -0.00000000000E+00 -0.10000000000E+04  0.10000000000E+04  0.00000000000E+00 0.  1.
    9000005    2    1    2  501    0 -0.19638682623E+02  0.33980569347E+02 -0.90370245966E+03  0.90456038169E+03  0.33153563828E+01 0.  0.
         13    1    3    3    0    0 -0.19168626136E+02  0.32076076606E+02 -0.84664965277E+03  0.84747386123E+03  0.00000000000E+00 0.  1.
          1    1    3    3  501    0 -0.47005648755E+00  0.19044927409E+01 -0.57052806881E+02  0.57086520464E+02  0.00000000000E+00 0.  1.
         -3    1    1    2    0  502  0.19638682623E+02 -0.33980569347E+02 -0.91851734186E+02  0.99885424469E+02  0.00000000000E+00 0. -1.
<mgrwt>
<rscale>  1 0.30000000E+03</rscale>
<asrwt>0</asrwt>
<pdfrwt beam="1">  1       21 0.16166602E-01 0.30000000E+03</pdfrwt>
<pdfrwt beam="2">0</pdfrwt>
<totfact> 0.35827898E+03</totfact>
</mgrwt>
</event>
<event>
 6    1  0.1273846E-001  0.3000000E+03  0.7818608E-02  0.1093470E+00
         21   -1    0    0  501  502  0.00000000000E+00  0.00000000000E+00  0.18355556495E+01  0.18355556495E+01  0.00000000000E+00 0. -1.
         13   -1    0    0    0    0 -0.00000000000E+00 -0.00000000000E+00 -0.10000000000E+04  0.10000000000E+04  0.00000000000E+00 0.  1.
    9000005    2    1    2  501    0 -0.33356839074E+02 -0.25619883273E+02 -0.58073788240E+03  0.58229534094E+03  0.65052978835E+01 0.  0.
         13    1    3    3    0    0 -0.17198761518E+02 -0.11292406072E+02 -0.24414319610E+03  0.24500860400E+03  0.00000000000E+00 0.  1.
          3    1    3    3  501    0 -0.16158077556E+02 -0.14327477201E+02 -0.33659468630E+03  0.33728673694E+03  0.00000000000E+00 0.  1.
         -1    1    1    2    0  502  0.33356839074E+02  0.25619883273E+02 -0.41742656195E+03  0.41954021471E+03  0.00000000000E+00 0. -1.
<mgrwt>
<rscale>  1 0.30000000E+03</rscale>
<asrwt>0</asrwt>
<pdfrwt beam="1">  1       21 0.66747619E-02 0.30000000E+03</pdfrwt>
<pdfrwt beam="2">0</pdfrwt>
<totfact> 0.17525527E+04</totfact>
</mgrwt>
</event>
<event>
 6    1  0.1273846E-001  0.3000000E+03  0.7818608E-02  0.1093470E+00
         21   -1    0    0  501  502  0.00000000000E+00  0.00000000000E+00  0.18043127476E+01  0.18043127476E+01  0.00000000000E+00 0. -1.
         13   -1    0    0    0    0 -0.00000000000E+00 -0.00000000000E+00 -0.10000000000E+04  0.10000000000E+04  0.00000000000E+00 0.  1.
    9000005    2    1    2  501    0  0.20792810834E+02  0.29227367581E+02 -0.76725674275E+03  0.76809642652E+03  0.16220776811E+01 0.  0.
         13    1    3    3    0    0  0.19942325215E+02  0.28166697469E+02 -0.73105248340E+03  0.73186664951E+03  0.00000000000E+00 0.  1.
          3    1    3    3  501    0  0.85048561916E+00  0.10606701123E+01 -0.36204259353E+02  0.36229777010E+02  0.00000000000E+00 0.  1.
         -3    1    1    2    0  502 -0.20792810834E+02 -0.29227367581E+02 -0.23093894450E+03  0.23370788623E+03  0.00000000000E+00 0. -1.
<mgrwt>
<rscale>  1 0.30000000E+03</rscale>
<asrwt>0</asrwt>
<pdfrwt beam="1">  1       21 0.65611511E-02 0.30000000E+03</pdfrwt>
<pdfrwt beam="2">0</pdfrwt>
<totfact> 0.18054861E+04</totfact>
</mgrwt>
</event>
<event>
 6    1  0.1273846E-001  0.3000000E+03  0.7818608E-02  0.1093470E+00
         21   -1    0    0  501  502  0.00000000000E+00  0.00000000000E+00  0.72189545328E+01  0.72189545328E+01  0.00000000000E+00 0. -1.
         13   -1    0    0    0    0 -0.00000000000E+00 -0.00000000000E+00 -0.10000000000E+04  0.10000000000E+04  0.00000000000E+00 0.  1.
    9000005    2    1    2  501    0  0.65112382579E+02  0.46189845578E+02 -0.66842061606E+03  0.67317881867E+03  0.32369332848E+01 0.  0.
         13    1    3    3    0    0  0.36599475875E+02  0.26926653316E+02 -0.39208057079E+03  0.39470462410E+03  0.00000000000E+00 0.  1.
          3    1    3    3  501    0  0.28512906704E+02  0.19263192262E+02 -0.27634004527E+03  0.27847419457E+03  0.00000000000E+00 0.  1.
         -3    1    1    2    0  502 -0.65112382579E+02 -0.46189845578E+02 -0.32436042941E+03  0.33404013586E+03  0.00000000000E+00 0. -1.
<mgrwt>
<rscale>  1 0.30000000E+03</rscale>
<asrwt>0</asrwt>
<pdfrwt beam="1">  1       21 0.26250799E-01 0.30000000E+03</pdfrwt>
<pdfrwt beam="2">0</pdfrwt>
<totfact> 0.14169800E+03</totfact>
</mgrwt>
</event>
<event>
 6    1  0.1273846E-001  0.3000000E+03  0.7818608E-02  0.1093470E+00
         21   -1    0    0  501  502  0.00000000000E+00  0.00000000000E+00  0.11499574138E+01  0.11499574138E+01  0.00000000000E+00 0. -1.
         13   -1    0    0    0    0 -0.00000000000E+00 -0.00000000000E+00 -0.10000000000E+04  0.10000000000E+04  0.00000000000E+00 0.  1.
    9000005    2    1    2  501    0  0.14849923566E+02 -0.27812462117E+02 -0.32123087969E+03  0.32279770142E+03  0.38761709088E+01 0.  0.
         13    1    3    3    0    0  0.23476877943E+01 -0.79535569961E+01 -0.86791439167E+02  0.87186722725E+02  0.00000000000E+00 0.  1.
          3    1    3    3  501    0  0.12502235772E+02 -0.19858905121E+02 -0.23443944052E+03  0.23561097870E+03  0.00000000000E+00 0.  1.
         -3    1    1    2    0  502 -0.14849923566E+02  0.27812462117E+02 -0.67761916290E+03  0.67835225599E+03  0.00000000000E+00 0. -1.
<mgrwt>
<rscale>  1 0.30000000E+03</rscale>
<asrwt>0</asrwt>
<pdfrwt beam="1">  1       21 0.41816721E-02 0.30000000E+03</pdfrwt>
<pdfrwt beam="2">0</pdfrwt>
<totfact> 0.39013471E+04</totfact>
</mgrwt>
</event>
<event>
 6    1  0.1273846E-001  0.3000000E+03  0.7818608E-02  0.1093470E+00
         21   -1    0    0  501  502  0.00000000000E+00  0.00000000000E+00  0.19818252871E+01  0.19818252871E+01  0.00000000000E+00 0. -1.
         13   -1    0    0    0    0 -0.00000000000E+00 -0.00000000000E+00 -0.10000000000E+04  0.10000000000E+04  0.00000000000E+00 0.  1.
    9000005    2    1    2  501    0  0.17814890562E+02 -0.28125089383E+02 -0.16919742936E+03  0.17249269401E+03  0.41914682862E+01 0.  0.
         13    1    3    3    0    0  0.12347762381E+02 -0.17186270478E+02 -0.98794991736E+02  0.10103606050E+03  0.00000000000E+00 0.  1.
          1    1    3    3  501    0  0.54671281815E+01 -0.10938818905E+02 -0.70402437621E+02  0.71456633510E+02  0.00000000000E+00 0.  1.
         -1    1    1    2    0  502 -0.17814890562E+02  0.28125089383E+02 -0.82882074536E+03  0.82948913128E+03  0.00000000000E+00 0. -1.
<mgrwt>
<rscale>  1 0.30000000E+03</rscale>
<asrwt>0</asrwt>
<pdfrwt beam="1">  1       21 0.72066526E-02 0.30000000E+03</pdfrwt>
<pdfrwt beam="2">0</pdfrwt>
<totfact> 0.15337681E+04</totfact>
</mgrwt>
</event>
<event>
 6    1  0.1273846E-001  0.3000000E+03  0.7818608E-02  0.1093470E+00
         21   -1    0    0  501  502  0.00000000000E+00  0.00000000000E+00  0.31302396561E+01  0.31302396561E+01  0.00000000000E+00 0. -1.
         13   -1    0    0    0    0 -0.00000000000E+00 -0.00000000000E+00 -0.10000000000E+04  0.10000000000E+04  0.00000000000E+00 0.  1.
    9000005    2    1    2  501    0  0.44330317925E+02  0.24474551986E+02 -0.71118692940E+03  0.71299430483E+03  0.31383731401E+01 0.  0.
         13    1    3    3    0    0  0.24172447573E+02  0.14347354668E+02 -0.41257369472E+03  0.41353017711E+03  0.00000000000E+00 0.  1.
          3    1    3    3  501    0  0.20157870353E+02  0.10127197318E+02 -0.29861323469E+03  0.29946412772E+03  0.00000000000E+00 0.  1.
         -1    1    1    2    0  502 -0.44330317925E+02 -0.24474551986E+02 -0.28568283094E+03  0.29013593483E+03  0.00000000000E+00 0. -1.
<mgrwt>
<rscale>  1 0.30000000E+03</rscale>
<asrwt>0</asrwt>
<pdfrwt beam="1">  1       21 0.11382714E-01 0.30000000E+03</pdfrwt>
<pdfrwt beam="2">0</pdfrwt>
<totfact> 0.68186058E+03</totfact>
</mgrwt>
</event>
<event>
 6    1  0.1273846E-001  0.3000000E+03  0.7818608E-02  0.1093470E+00
         21   -1    0    0  501  502  0.00000000000E+00  0.00000000000E+00  0.33043967587E+01  0.33043967587E+01  0.00000000000E+00 0. -1.
         13   -1    0    0    0    0 -0.00000000000E+00 -0.00000000000E+00 -0.10000000000E+04  0.10000000000E+04  0.00000000000E+00 0.  1.
    9000005    2    1    2  501    0 -0.67246927847E+00 -0.52745573258E+02 -0.30355830068E+03  0.30816277960E+03  0.58402998068E+01 0.  0.
         13    1    3    3    0    0 -0.31608074969E+01 -0.24426634466E+02 -0.14443094112E+03  0.14651603301E+03  0.00000000000E+00 0.  1.
          3    1    3    3  501    0  0.24883382184E+01 -0.28318938792E+02 -0.15912735956E+03  0.16164674659E+03  0.00000000000E+00 0.  1.
         -1    1    1    2    0  502  0.67246927847E+00  0.52745573258E+02 -0.69313730256E+03  0.69514161716E+03  0.00000000000E+00 0. -1.
<mgrwt>
<rscale>  1 0.30000000E+03</rscale>
<asrwt>0</asrwt>
<pdfrwt beam="1">  1       21 0.12016014E-01 0.30000000E+03</pdfrwt>
<pdfrwt beam="2">0</pdfrwt>
<totfact> 0.61821378E+03</totfact>
</mgrwt>
</event>
<event>
 6    1  0.1273846E-001  0.3000000E+03  0.7818608E-02  0.1093470E+00
         21   -1    0    0  501  502  0.00000000000E+00  0.00000000000E+00  0.55079880357E+01  0.55079880357E+01  0.00000000000E+00 0. -1.
         13   -1    0    0    0    0 -0.00000000000E+00 -0.00000000000E+00 -0.10000000000E+04  0.10000000000E+04  0.00000000000E+00 0.  1.
    9000005    2    1    2  501    0  0.26170042330E+02  0.47693411343E+02 -0.83908847482E+03  0.84085747344E+03  0.35056319380E+01 0.  0.
         13    1    3    3    0    0  0.10058846544E+02  0.19293197410E+02 -0.31035344369E+03  0.31111520033E+03  0.00000000000E+00 0.  1.
          3    1    3    3  501    0  0.16111195787E+02  0.28400213933E+02 -0.52873503113E+03  0.52974227311E+03  0.00000000000E+00 0.  1.
         -3    1    1    2    0  502 -0.26170042330E+02 -0.47693411343E+02 -0.15540353714E+03  0.16465051460E+03  0.00000000000E+00 0. -1.
<mgrwt>
<rscale>  1 0.30000000E+03</rscale>
<asrwt>0</asrwt>
<pdfrwt beam="1">  1       21 0.20029090E-01 0.30000000E+03</pdfrwt>
<pdfrwt beam="2">0</pdfrwt>
<totfact> 0.23925738E+03</totfact>
</mgrwt>
</event>
<event>
 6    1  0.1273846E-001  0.3000000E+03  0.7818608E-02  0.1093470E+00
         21   -1    0    0  501  502  0.00000000000E+00  0.00000000000E+00  0.58324371410E+01  0.58324371410E+01  0.00000000000E+00 0. -1.
         13   -1    0    0    0    0 -0.00000000000E+00 -0.00000000000E+00 -0.10000000000E+04  0.10000000000E+04  0.00000000000E+00 0.  1.
    9000005    2    1    2  501    0  0.30218998049E+02  0.18693618565E+02 -0.94203609374E+03  0.94274258621E+03  0.83031755413E+01 0.  0.
         13    1    3    3    0    0  0.53254921539E+00  0.21507161859E+01 -0.35006569004E+02  0.35076617030E+02  0.00000000000E+00 0.  1.
          3    1    3    3  501    0  0.29686448833E+02  0.16542902379E+02 -0.90702952474E+03  0.90766596918E+03  0.00000000000E+00 0.  1.
         -1    1    1    2    0  502 -0.30218998049E+02 -0.18693618565E+02 -0.52131469116E+02  0.63089850930E+02  0.00000000000E+00 0. -1.
<mgrwt>
<rscale>  1 0.30000000E+03</rscale>
<asrwt>0</asrwt>
<pdfrwt beam="1">  1       21 0.21208907E-01 0.30000000E+03</pdfrwt>
<pdfrwt beam="2">0</pdfrwt>
<totfact> 0.21443278E+03</totfact>
</mgrwt>
</event>
<event>
 6    1  0.1273846E-001  0.3000000E+03  0.7818608E-02  0.1093470E+00
         21   -1    0    0  501  502  0.00000000000E+00  0.00000000000E+00  0.64106003989E+01  0.64106003989E+01  0.00000000000E+00 0. -1.
         13   -1    0    0    0    0 -0.00000000000E+00 -0.00000000000E+00 -0.10000000000E+04  0.10000000000E+04  0.00000000000E+00 0.  1.
    9000005    2    1    2  501    0 -0.48433953524E+00  0.42377463773E+02 -0.92367042064E+03  0.92465029438E+03  0.38777469037E+01 0.  0.
         13    1    3    3    0    0  0.88925856066E+00  0.60731058132E+01 -0.15593850517E+03  0.15605925410E+03  0.00000000000E+00 0.  1.
          1    1    3    3  501    0 -0.13735980959E+01  0.36304357959E+02 -0.76773191547E+03  0.76859104029E+03  0.00000000000E+00 0.  1.
         -1    1    1    2    0  502  0.48433953524E+00 -0.42377463773E+02 -0.69918978966E+02  0.81760306018E+02  0.00000000000E+00 0. -1.
<mgrwt>
<rscale>  1 0.30000000E+03</rscale>
<asrwt>0</asrwt>
<pdfrwt beam="1">  1       21 0.23311323E-01 0.30000000E+03</pdfrwt>
<pdfrwt beam="2">0</pdfrwt>
<totfact> 0.17871368E+03</totfact>
</mgrwt>
</event>
<event>
 6    1  0.1273846E-001  0.3000000E+03  0.7818608E-02  0.1093470E+00
         21   -1    0    0  501  502  0.00000000000E+00  0.00000000000E+00  0.39225935422E+01  0.39225935422E+01  0.00000000000E+00 0. -1.
         13   -1    0    0    0    0 -0.00000000000E+00 -0.00000000000E+00 -0.10000000000E+04  0.10000000000E+04  0.00000000000E+00 0.  1.
    9000005    2    1    2  501    0  0.30679679754E+02  0.25837808901E+02 -0.88282981548E+03  0.88378162642E+03  0.85232024230E+01 0.  0.
         13    1    3    3    0    0  0.20000227761E+02  0.13360883593E+02 -0.45289377099E+03  0.45353201664E+03  0.00000000000E+00 0.  1.
          3    1    3    3  501    0  0.10679451993E+02  0.12476925308E+02 -0.42993604450E+03  0.43024960978E+03  0.00000000000E+00 0.  1.
         -3    1    1    2    0  502 -0.30679679754E+02 -0.25837808901E+02 -0.11324759097E+03  0.12014096712E+03  0.00000000000E+00 0. -1.
<mgrwt>
<rscale>  1 0.30000000E+03</rscale>
<asrwt>0</asrwt>
<pdfrwt beam="1">  1       21 0.14264007E-01 0.30000000E+03</pdfrwt>
<pdfrwt beam="2">0</pdfrwt>
<totfact> 0.45187333E+03</totfact>
</mgrwt>
</event>
<event>
 6    1  0.1273846E-001  0.3000000E+03  0.7818608E-02  0.1093470E+00
         21   -1    0    0  501  502  0.00000000000E+00  0.00000000000E+00  0.19317009999E+01  0.19317009999E+01  0.00000000000E+00 0. -1.
         13   -1    0    0    0    0 -0.00000000000E+00 -0.00000000000E+00 -0.10000000000E+04  0.10000000000E+04  0.00000000000E+00 0.  1.
    9000005    2    1    2  501    0 -0.17636068133E+00  0.41819993038E+02 -0.65176481248E+03  0.65311219510E+03  0.30373803449E+01 0.  0.
         13    1    3    3    0    0 -0.97568009468E+00  0.26757358332E+02 -0.39827883454E+03  0.39917782781E+03  0.00000000000E+00 0.  1.
          3    1    3    3  501    0  0.79931941335E+00  0.15062634706E+02 -0.25348597794E+03  0.25393436728E+03  0.00000000000E+00 0.  1.
         -3    1    1    2    0  502  0.17636068133E+00 -0.41819993038E+02 -0.34630348652E+03  0.34881950590E+03  0.00000000000E+00 0. -1.
<mgrwt>
<rscale>  1 0.30000000E+03</rscale>
<asrwt>0</asrwt>
<pdfrwt beam="1">  1       21 0.70243821E-02 0.30000000E+03</pdfrwt>
<pdfrwt beam="2">0</pdfrwt>
<totfact> 0.16037928E+04</totfact>
</mgrwt>
</event>
<event>
 6    1  0.1273846E-001  0.3000000E+03  0.7818608E-02  0.1093470E+00
         21   -1    0    0  501  502  0.00000000000E+00  0.00000000000E+00  0.75232665862E+01  0.75232665862E+01  0.00000000000E+00 0. -1.
         13   -1    0    0    0    0 -0.00000000000E+00 -0.00000000000E+00 -0.10000000000E+04  0.10000000000E+04  0.00000000000E+00 0.  1.
    9000005    2    1    2  501    0  0.45788538691E+02  0.68854878955E+02 -0.64785335202E+03  0.65311832921E+03  0.34643323801E+01 0.  0.
         13    1    3    3    0    0  0.14308819382E+02  0.21849215185E+02 -0.21745618477E+03  0.21901900102E+03  0.00000000000E+00 0.  1.
          1    1    3    3  501    0  0.31479719309E+02  0.47005663770E+02 -0.43039716725E+03  0.43409932819E+03  0.00000000000E+00 0.  1.
         -3    1    1    2    0  502 -0.45788538691E+02 -0.68854878955E+02 -0.34462338140E+03  0.35440493738E+03  0.00000000000E+00 0. -1.
<mgrwt>
<rscale>  1 0.30000000E+03</rscale>
<asrwt>0</asrwt>
<pdfrwt beam="1">  1       21 0.27357391E-01 0.30000000E+03</pdfrwt>
<pdfrwt beam="2">0</pdfrwt>
<totfact> 0.13060887E+03</totfact>
</mgrwt>
</event>
<event>
 6    1  0.1273846E-001  0.3000000E+03  0.7818608E-02  0.1093470E+00
         21   -1    0    0  501  502  0.00000000000E+00  0.00000000000E+00  0.12105896216E+01  0.12105896216E+01  0.00000000000E+00 0. -1.
         13   -1    0    0    0    0 -0.00000000000E+00 -0.00000000000E+00 -0.10000000000E+04  0.10000000000E+04  0.00000000000E+00 0.  1.
    9000005    2    1    2  501    0 -0.29870778512E+01  0.34027474310E+02 -0.57831451806E+03  0.57935051008E+03  0.57043919300E+01 0.  0.
         13    1    3    3    0    0  0.10020082949E+01  0.17510212264E+02 -0.31574479420E+03  0.31623153957E+03  0.00000000000E+00 0.  1.
          1    1    3    3  501    0 -0.39890861461E+01  0.16517262046E+02 -0.26256972387E+03  0.26311897052E+03  0.00000000000E+00 0.  1.
         -1    1    1    2    0  502  0.29870778512E+01 -0.34027474310E+02 -0.42047489231E+03  0.42186007954E+03  0.00000000000E+00 0. -1.
<mgrwt>
<rscale>  1 0.30000000E+03</rscale>
<asrwt>0</asrwt>
<pdfrwt beam="1">  1       21 0.44021534E-02 0.30000000E+03</pdfrwt>
<pdfrwt beam="2">0</pdfrwt>
<totfact> 0.35766747E+04</totfact>
</mgrwt>
</event>
<event>
 6    1  0.1273846E-001  0.3000000E+03  0.7818608E-02  0.1093470E+00
         21   -1    0    0  501  502  0.00000000000E+00  0.00000000000E+00  0.22580976762E+01  0.22580976762E+01  0.00000000000E+00 0. -1.
         13   -1    0    0    0    0 -0.00000000000E+00 -0.00000000000E+00 -0.10000000000E+04  0.10000000000E+04  0.00000000000E+00 0.  1.
    9000005    2    1    2  501    0  0.25907376827E+02 -0.16629490107E+02 -0.11842686977E+03  0.12240432654E+03  0.31880332324E+01 0.  0.
         13    1    3    3    0    0  0.20995599833E+02 -0.11966234757E+02 -0.91140157581E+02  0.94289629920E+02  0.00000000000E+00 0.  1.
          3    1    3    3  501    0  0.49117769934E+01 -0.46632553501E+01 -0.27286712192E+02  0.28114696618E+02  0.00000000000E+00 0.  1.
         -1    1    1    2    0  502 -0.25907376827E+02  0.16629490107E+02 -0.87931503255E+03  0.87985377114E+03  0.00000000000E+00 0. -1.
<mgrwt>
<rscale>  1 0.30000000E+03</rscale>
<asrwt>0</asrwt>
<pdfrwt beam="1">  1       21 0.82112816E-02 0.30000000E+03</pdfrwt>
<pdfrwt beam="2">0</pdfrwt>
<totfact> 0.12201756E+04</totfact>
</mgrwt>
</event>
<event>
 6    1  0.1273846E-001  0.3000000E+03  0.7818608E-02  0.1093470E+00
         21   -1    0    0  501  502  0.00000000000E+00  0.00000000000E+00  0.13665662365E+01  0.13665662365E+01  0.00000000000E+00 0. -1.
         13   -1    0    0    0    0 -0.00000000000E+00 -0.00000000000E+00 -0.10000000000E+04  0.10000000000E+04  0.00000000000E+00 0.  1.
    9000005    2    1    2  501    0  0.14402448071E+01 -0.30673636841E+02 -0.77718008646E+03  0.77779436015E+03  0.34976549507E+01 0.  0.
         13    1    3    3    0    0  0.13490685547E+01 -0.55271994879E+01 -0.16481705399E+03  0.16491522430E+03  0.00000000000E+00 0.  1.
          1    1    3    3  501    0  0.91176252415E-01 -0.25146437353E+02 -0.61236303247E+03  0.61287913585E+03  0.00000000000E+00 0.  1.
         -1    1    1    2    0  502 -0.14402448071E+01  0.30673636841E+02 -0.22145334731E+03  0.22357220609E+03  0.00000000000E+00 0. -1.
<mgrwt>
<rscale>  1 0.30000000E+03</rscale>
<asrwt>0</asrwt>
<pdfrwt beam="1">  1       21 0.49693422E-02 0.30000000E+03</pdfrwt>
<pdfrwt beam="2">0</pdfrwt>
<totfact> 0.29108209E+04</totfact>
</mgrwt>
</event>
<event>
 6    1  0.1273846E-001  0.3000000E+03  0.7818608E-02  0.1093470E+00
         21   -1    0    0  501  502  0.00000000000E+00  0.00000000000E+00  0.30505973734E+01  0.30505973734E+01  0.00000000000E+00 0. -1.
         13   -1    0    0    0    0 -0.00000000000E+00 -0.00000000000E+00 -0.10000000000E+04  0.10000000000E+04  0.00000000000E+00 0.  1.
    9000005    2    1    2  501    0  0.33332699042E+02  0.32271027867E+01 -0.89717288400E+03  0.89780404547E+03  0.33819024115E+01 0.  0.
         13    1    3    3    0    0  0.92894755115E+01 -0.58822278944E+00 -0.25627233017E+03  0.25644131409E+03  0.00000000000E+00 0.  1.
          1    1    3    3  501    0  0.24043223531E+02  0.38153255761E+01 -0.64090055383E+03  0.64136273138E+03  0.00000000000E+00 0.  1.
         -1    1    1    2    0  502 -0.33332699042E+02 -0.32271027867E+01 -0.99776518631E+02  0.10524655191E+03  0.00000000000E+00 0. -1.
<mgrwt>
<rscale>  1 0.30000000E+03</rscale>
<asrwt>0</asrwt>
<pdfrwt beam="1">  1       21 0.11093105E-01 0.30000000E+03</pdfrwt>
<pdfrwt beam="2">0</pdfrwt>
<totfact> 0.71428440E+03</totfact>
</mgrwt>
</event>
<event>
 6    1  0.1273846E-001  0.3000000E+03  0.7818608E-02  0.1093470E+00
         21   -1    0    0  501  502  0.00000000000E+00  0.00000000000E+00  0.24787244799E+01  0.24787244799E+01  0.00000000000E+00 0. -1.
         13   -1    0    0    0    0 -0.00000000000E+00 -0.00000000000E+00 -0.10000000000E+04  0.10000000000E+04  0.00000000000E+00 0.  1.
    9000005    2    1    2  501    0  0.17005723993E+02  0.38901617697E+02 -0.75816416991E+03  0.75938542035E+03  0.71258398150E+01 0.  0.
         13    1    3    3    0    0  0.16228583820E+02  0.31785306142E+02 -0.65669495916E+03  0.65766400388E+03  0.00000000000E+00 0.  1.
          1    1    3    3  501    0  0.77714017307E+00  0.71163115550E+01 -0.10146921075E+03  0.10172141646E+03  0.00000000000E+00 0.  1.
         -3    1    1    2    0  502 -0.17005723993E+02 -0.38901617697E+02 -0.23935710561E+03  0.24309330413E+03  0.00000000000E+00 0. -1.
<mgrwt>
<rscale>  1 0.30000000E+03</rscale>
<asrwt>0</asrwt>
<pdfrwt beam="1">  1       21 0.90135626E-02 0.30000000E+03</pdfrwt>
<pdfrwt beam="2">0</pdfrwt>
<totfact> 0.10350438E+04</totfact>
</mgrwt>
</event>
<event>
 6    1  0.1273846E-001  0.3000000E+03  0.7818608E-02  0.1093470E+00
         21   -1    0    0  501  502  0.00000000000E+00  0.00000000000E+00  0.12892958091E+01  0.12892958091E+01  0.00000000000E+00 0. -1.
         13   -1    0    0    0    0 -0.00000000000E+00 -0.00000000000E+00 -0.10000000000E+04  0.10000000000E+04  0.00000000000E+00 0.  1.
    9000005    2    1    2  501    0  0.12081943946E+02 -0.28858517110E+02 -0.74397325859E+03  0.74463787156E+03  0.32500585966E+01 0.  0.
         13    1    3    3    0    0  0.43088811194E+01 -0.66494328628E+01 -0.18578497109E+03  0.18595385691E+03  0.00000000000E+00 0.  1.
          1    1    3    3  501    0  0.77730628270E+01 -0.22209084247E+02 -0.55818828750E+03  0.55868401466E+03  0.00000000000E+00 0.  1.
         -1    1    1    2    0  502 -0.12081943946E+02  0.28858517110E+02 -0.25473744560E+03  0.25665142425E+03  0.00000000000E+00 0. -1.
<mgrwt>
<rscale>  1 0.30000000E+03</rscale>
<asrwt>0</asrwt>
<pdfrwt beam="1">  1       21 0.46883583E-02 0.30000000E+03</pdfrwt>
<pdfrwt beam="2">0</pdfrwt>
<totfact> 0.32139562E+04</totfact>
</mgrwt>
</event>
<event>
 6    1  0.1273846E-001  0.3000000E+03  0.7818608E-02  0.1093470E+00
         21   -1    0    0  501  502  0.00000000000E+00  0.00000000000E+00  0.10216569207E+01  0.10216569207E+01  0.00000000000E+00 0. -1.
         13   -1    0    0    0    0 -0.00000000000E+00 -0.00000000000E+00 -0.10000000000E+04  0.10000000000E+04  0.00000000000E+00 0.  1.
    9000005    2    1    2  501    0  0.29347511823E+02  0.12292321236E+02 -0.47101258151E+03  0.47209801120E+03  0.33619381380E+01 0.  0.
         13    1    3    3    0    0  0.59921426352E+01  0.37760853647E+01 -0.11613199083E+03  0.11634777131E+03  0.00000000000E+00 0.  1.
          3    1    3    3  501    0  0.23355369188E+02  0.85162358717E+01 -0.35488059068E+03  0.35575023989E+03  0.00000000000E+00 0.  1.
         -1    1    1    2    0  502 -0.29347511823E+02 -0.12292321236E+02 -0.52796576157E+03  0.52892364572E+03  0.00000000000E+00 0. -1.
<mgrwt>
<rscale>  1 0.30000000E+03</rscale>
<asrwt>0</asrwt>
<pdfrwt beam="1">  1       21 0.37151239E-02 0.30000000E+03</pdfrwt>
<pdfrwt beam="2">0</pdfrwt>
<totfact> 0.47608332E+04</totfact>
</mgrwt>
</event>
<event>
 6    1  0.1273846E-001  0.3000000E+03  0.7818608E-02  0.1093470E+00
         21   -1    0    0  501  502  0.00000000000E+00  0.00000000000E+00  0.20664360357E+01  0.20664360357E+01  0.00000000000E+00 0. -1.
         13   -1    0    0    0    0 -0.00000000000E+00 -0.00000000000E+00 -0.10000000000E+04  0.10000000000E+04  0.00000000000E+00 0.  1.
    9000005    2    1    2  501    0 -0.31445624361E+02 -0.10572851507E+02 -0.84119637694E+03  0.84185670389E+03  0.32791483526E+01 0.  0.
         13    1    3    3    0    0 -0.22594337066E+02 -0.83160696150E+01 -0.64114796864E+03  0.64159985877E+03  0.00000000000E+00 0.  1.
          1    1    3    3  501    0 -0.88512872948E+01 -0.22567818920E+01 -0.20004840830E+03  0.20025684512E+03  0.00000000000E+00 0.  1.
         -3    1    1    2    0  502  0.31445624361E+02  0.10572851507E+02 -0.15673718702E+03  0.16020973215E+03  0.00000000000E+00 0. -1.
<mgrwt>
<rscale>  1 0.30000000E+03</rscale>
<asrwt>0</asrwt>
<pdfrwt beam="1">  1       21 0.75143287E-02 0.30000000E+03</pdfrwt>
<pdfrwt beam="2">0</pdfrwt>
<totfact> 0.14256738E+04</totfact>
</mgrwt>
</event>
<event>
 6    1  0.1273846E-001  0.3000000E+03  0.7818608E-02  0.1093470E+00
         21   -1    0    0  501  502  0.00000000000E+00  0.00000000000E+00  0.21971069743E+01  0.21971069743E+01  0.00000000000E+00 0. -1.
         13   -1    0    0    0    0 -0.00000000000E+00 -0.00000000000E+00 -0.10000000000E+04  0.10000000000E+04  0.00000000000E+00 0.  1.
    9000005    2    1    2  501    0  0.24235310490E+02 -0.37214076423E+02 -0.34031173507E+03  0.34320783503E+03  0.27024499178E+01 0.  0.
         13    1    3    3    0    0  0.15441157567E+02 -0.25682532448E+02 -0.23442291285E+03  0.23633053948E+03  0.00000000000E+00 0.  1.
          1    1    3    3  501    0  0.87941529224E+01 -0.11531543975E+02 -0.10588882222E+03  0.10687729555E+03  0.00000000000E+00 0.  1.
         -3    1    1    2    0  502 -0.24235310490E+02  0.37214076423E+02 -0.65749115795E+03  0.65898927195E+03  0.00000000000E+00 0. -1.
<mgrwt>
<rscale>  1 0.30000000E+03</rscale>
<asrwt>0</asrwt>
<pdfrwt beam="1">  1       21 0.79894968E-02 0.30000000E+03</pdfrwt>
<pdfrwt beam="2">0</pdfrwt>
<totfact> 0.12803378E+04</totfact>
</mgrwt>
</event>
<event>
 6    1  0.1273846E-001  0.3000000E+03  0.7818608E-02  0.1093470E+00
         21   -1    0    0  501  502  0.00000000000E+00  0.00000000000E+00  0.14289805792E+01  0.14289805792E+01  0.00000000000E+00 0. -1.
         13   -1    0    0    0    0 -0.00000000000E+00 -0.00000000000E+00 -0.10000000000E+04  0.10000000000E+04  0.00000000000E+00 0.  1.
    9000005    2    1    2  501    0  0.10190435712E+01 -0.30463441181E+02 -0.79479999927E+03  0.79539090557E+03  0.32548629116E+01 0.  0.
         13    1    3    3    0    0  0.18599714400E+01 -0.10404566097E+02 -0.28269440213E+03  0.28289192191E+03  0.00000000000E+00 0.  1.
          3    1    3    3  501    0 -0.84092786879E+00 -0.20058875084E+02 -0.51210559714E+03  0.51249898366E+03  0.00000000000E+00 0.  1.
         -3    1    1    2    0  502 -0.10190435712E+01  0.30463441181E+02 -0.20377102015E+03  0.20603807501E+03  0.00000000000E+00 0. -1.
<mgrwt>
<rscale>  1 0.30000000E+03</rscale>
<asrwt>0</asrwt>
<pdfrwt beam="1">  1       21 0.51963040E-02 0.30000000E+03</pdfrwt>
<pdfrwt beam="2">0</pdfrwt>
<totfact> 0.26972625E+04</totfact>
</mgrwt>
</event>
<event>
 6    1  0.1273846E-001  0.3000000E+03  0.7818608E-02  0.1093470E+00
         21   -1    0    0  501  502  0.00000000000E+00  0.00000000000E+00  0.18379514890E+01  0.18379514890E+01  0.00000000000E+00 0. -1.
         13   -1    0    0    0    0 -0.00000000000E+00 -0.00000000000E+00 -0.10000000000E+04  0.10000000000E+04  0.00000000000E+00 0.  1.
    9000005    2    1    2  501    0  0.12132921149E+02  0.40761142246E+02 -0.44343157110E+03  0.44547963075E+03  0.34445126563E+01 0.  0.
         13    1    3    3    0    0  0.32066312096E+01  0.15557599366E+02 -0.15542056230E+03  0.15623019096E+03  0.00000000000E+00 0.  1.
          3    1    3    3  501    0  0.89262899399E+01  0.25203542879E+02 -0.28801100880E+03  0.28924943979E+03  0.00000000000E+00 0.  1.
         -1    1    1    2    0  502 -0.12132921149E+02 -0.40761142246E+02 -0.55473047741E+03  0.55635832074E+03  0.00000000000E+00 0. -1.
<mgrwt>
<rscale>  1 0.30000000E+03</rscale>
<asrwt>0</asrwt>
<pdfrwt beam="1">  1       21 0.66834741E-02 0.30000000E+03</pdfrwt>
<pdfrwt beam="2">0</pdfrwt>
<totfact> 0.17485924E+04</totfact>
</mgrwt>
</event>
<event>
 6    1  0.1273846E-001  0.3000000E+03  0.7818608E-02  0.1093470E+00
         21   -1    0    0  501  502  0.00000000000E+00  0.00000000000E+00  0.43242338907E+01  0.43242338907E+01  0.00000000000E+00 0. -1.
         13   -1    0    0    0    0 -0.00000000000E+00 -0.00000000000E+00 -0.10000000000E+04  0.10000000000E+04  0.00000000000E+00 0.  1.
    9000005    2    1    2  501    0 -0.34501774121E+02  0.38279907719E+02 -0.80957278132E+03  0.81121792975E+03  0.32737648810E+01 0.  0.
         13    1    3    3    0    0 -0.38077744233E+01  0.52577005635E+01 -0.11578455298E+03  0.11596639716E+03  0.00000000000E+00 0.  1.
          3    1    3    3  501    0 -0.30693999698E+02  0.33022207156E+02 -0.69378822834E+03  0.69525153259E+03  0.00000000000E+00 0.  1.
         -3    1    1    2    0  502  0.34501774121E+02 -0.38279907719E+02 -0.18610298479E+03  0.19310630414E+03  0.00000000000E+00 0. -1.
<mgrwt>
<rscale>  1 0.30000000E+03</rscale>
<asrwt>0</asrwt>
<pdfrwt beam="1">  1       21 0.15724520E-01 0.30000000E+03</pdfrwt>
<pdfrwt beam="2">0</pdfrwt>
<totfact> 0.37727662E+03</totfact>
</mgrwt>
</event>
<event>
 6    1  0.1273846E-001  0.3000000E+03  0.7818608E-02  0.1093470E+00
         21   -1    0    0  501  502  0.00000000000E+00  0.00000000000E+00  0.32441718365E+01  0.32441718365E+01  0.00000000000E+00 0. -1.
         13   -1    0    0    0    0 -0.00000000000E+00 -0.00000000000E+00 -0.10000000000E+04  0.10000000000E+04  0.00000000000E+00 0.  1.
    9000005    2    1    2  501    0 -0.40412853992E+02  0.12471111460E+02 -0.83412009793E+03  0.83519921316E+03  0.35581595700E+01 0.  0.
         13    1    3    3    0    0 -0.34195667729E+02  0.10340193836E+02 -0.67741527822E+03  0.67835663369E+03  0.00000000000E+00 0.  1.
          3    1    3    3  501    0 -0.62171862626E+01  0.21309176240E+01 -0.15670481971E+03  0.15684257947E+03  0.00000000000E+00 0.  1.
         -1    1    1    2    0  502  0.40412853992E+02 -0.12471111460E+02 -0.16263573023E+03  0.16804495868E+03  0.00000000000E+00 0. -1.
<mgrwt>
<rscale>  1 0.30000000E+03</rscale>
<asrwt>0</asrwt>
<pdfrwt beam="1">  1       21 0.11797013E-01 0.30000000E+03</pdfrwt>
<pdfrwt beam="2">0</pdfrwt>
<totfact> 0.63918103E+03</totfact>
</mgrwt>
</event>
<event>
 6    1  0.1273846E-001  0.3000000E+03  0.7818608E-02  0.1093470E+00
         21   -1    0    0  501  502  0.00000000000E+00  0.00000000000E+00  0.18587972802E+01  0.18587972802E+01  0.00000000000E+00 0. -1.
         13   -1    0    0    0    0 -0.00000000000E+00 -0.00000000000E+00 -0.10000000000E+04  0.10000000000E+04  0.00000000000E+00 0.  1.
    9000005    2    1    2  501    0 -0.31999244366E+02  0.21342379085E+02 -0.27416029134E+03  0.27685686016E+03  0.25311825861E+01 0.  0.
         13    1    3    3    0    0 -0.21805479089E+02  0.14864973548E+02 -0.17965610039E+03  0.18158403224E+03  0.00000000000E+00 0.  1.
          3    1    3    3  501    0 -0.10193765277E+02  0.64774055370E+01 -0.94504190954E+02  0.95272827925E+02  0.00000000000E+00 0.  1.
         -3    1    1    2    0  502  0.31999244366E+02 -0.21342379085E+02 -0.72398091138E+03  0.72500193712E+03  0.00000000000E+00 0. -1.
<mgrwt>
<rscale>  1 0.30000000E+03</rscale>
<asrwt>0</asrwt>
<pdfrwt beam="1">  1       21 0.67592771E-02 0.30000000E+03</pdfrwt>
<pdfrwt beam="2">0</pdfrwt>
<totfact> 0.17147082E+04</totfact>
</mgrwt>
</event>
<event>
 6    1  0.1273846E-001  0.3000000E+03  0.7818608E-02  0.1093470E+00
         21   -1    0    0  501  502  0.00000000000E+00  0.00000000000E+00  0.13605137193E+01  0.13605137193E+01  0.00000000000E+00 0. -1.
         13   -1    0    0    0    0 -0.00000000000E+00 -0.00000000000E+00 -0.10000000000E+04  0.10000000000E+04  0.00000000000E+00 0.  1.
    9000005    2    1    2  501    0 -0.30369594529E+02 -0.20753060698E+02 -0.49006947532E+03  0.49146203574E+03  0.37202325264E+01 0.  0.
         13    1    3    3    0    0 -0.15604134393E+02 -0.85626774469E+01 -0.24500198037E+03  0.24564767217E+03  0.00000000000E+00 0.  1.
          3    1    3    3  501    0 -0.14765460135E+02 -0.12190383251E+02 -0.24506749495E+03  0.24581436357E+03  0.00000000000E+00 0.  1.
         -3    1    1    2    0  502  0.30369594529E+02  0.20753060698E+02 -0.50857001096E+03  0.50989847798E+03  0.00000000000E+00 0. -1.
<mgrwt>
<rscale>  1 0.30000000E+03</rscale>
<asrwt>0</asrwt>
<pdfrwt beam="1">  1       21 0.49473330E-02 0.30000000E+03</pdfrwt>
<pdfrwt beam="2">0</pdfrwt>
<totfact> 0.29329216E+04</totfact>
</mgrwt>
</event>
<event>
 6    1  0.1273846E-001  0.3000000E+03  0.7818608E-02  0.1093470E+00
         21   -1    0    0  501  502  0.00000000000E+00  0.00000000000E+00  0.42241689047E+01  0.42241689047E+01  0.00000000000E+00 0. -1.
         13   -1    0    0    0    0 -0.00000000000E+00 -0.00000000000E+00 -0.10000000000E+04  0.10000000000E+04  0.00000000000E+00 0.  1.
    9000005    2    1    2  501    0  0.19994461318E+02 -0.59105537212E+02 -0.63761668226E+03  0.64067057051E+03  0.32408959569E+01 0.  0.
         13    1    3    3    0    0  0.47583346399E+01 -0.18269168718E+02 -0.18627999023E+03  0.18723418233E+03  0.00000000000E+00 0.  1.
          1    1    3    3  501    0  0.15236126678E+02 -0.40836368494E+02 -0.45133669203E+03  0.45343638817E+03  0.00000000000E+00 0.  1.
         -3    1    1    2    0  502 -0.19994461318E+02  0.59105537212E+02 -0.35815914884E+03  0.36355359840E+03  0.00000000000E+00 0. -1.
<mgrwt>
<rscale>  1 0.30000000E+03</rscale>
<asrwt>0</asrwt>
<pdfrwt beam="1">  1       21 0.15360647E-01 0.30000000E+03</pdfrwt>
<pdfrwt beam="2">0</pdfrwt>
<totfact> 0.39406175E+03</totfact>
</mgrwt>
</event>
<event>
 6    1  0.1273846E-001  0.3000000E+03  0.7818608E-02  0.1093470E+00
         21   -1    0    0  501  502  0.00000000000E+00  0.00000000000E+00  0.14586466250E+01  0.14586466250E+01  0.00000000000E+00 0. -1.
         13   -1    0    0    0    0 -0.00000000000E+00 -0.00000000000E+00 -0.10000000000E+04  0.10000000000E+04  0.00000000000E+00 0.  1.
    9000005    2    1    2  501    0  0.11349810133E+02 -0.28637076781E+02 -0.79423389306E+03  0.79484199992E+03  0.41746364827E+01 0.  0.
         13    1    3    3    0    0  0.10649240860E-01 -0.20982121866E+01 -0.74961929570E+02  0.74991289445E+02  0.00000000000E+00 0.  1.
          1    1    3    3  501    0  0.11339160892E+02 -0.26538864594E+02 -0.71927196349E+03  0.71985071047E+03  0.00000000000E+00 0.  1.
         -3    1    1    2    0  502 -0.11349810133E+02  0.28637076781E+02 -0.20430746031E+03  0.20661664671E+03  0.00000000000E+00 0. -1.
<mgrwt>
<rscale>  1 0.30000000E+03</rscale>
<asrwt>0</asrwt>
<pdfrwt beam="1">  1       21 0.53041807E-02 0.30000000E+03</pdfrwt>
<pdfrwt beam="2">0</pdfrwt>
<totfact> 0.26041720E+04</totfact>
</mgrwt>
</event>
<event>
 6    1  0.1273846E-001  0.3000000E+03  0.7818608E-02  0.1093470E+00
         21   -1    0    0  501  502  0.00000000000E+00  0.00000000000E+00  0.10663106077E+01  0.10663106077E+01  0.00000000000E+00 0. -1.
         13   -1    0    0    0    0 -0.00000000000E+00 -0.00000000000E+00 -0.10000000000E+04  0.10000000000E+04  0.00000000000E+00 0.  1.
    9000005    2    1    2  501    0 -0.31013305245E+02 -0.38047045386E+01 -0.35953714306E+03  0.36090676460E+03  0.32302659047E+01 0.  0.
         13    1    3    3    0    0 -0.30888376745E+02 -0.35154207004E+01 -0.35671249039E+03  0.35806459026E+03  0.00000000000E+00 0.  1.
          1    1    3    3  501    0 -0.12492850032E+00 -0.28928383824E+00 -0.28246526692E+01  0.28421743385E+01  0.00000000000E+00 0.  1.
         -3    1    1    2    0  502  0.31013305245E+02  0.38047045386E+01 -0.63939654633E+03  0.64015954601E+03  0.00000000000E+00 0. -1.
<mgrwt>
<rscale>  1 0.30000000E+03</rscale>
<asrwt>0</asrwt>
<pdfrwt beam="1">  1       21 0.38775013E-02 0.30000000E+03</pdfrwt>
<pdfrwt beam="2">0</pdfrwt>
<totfact> 0.44306686E+04</totfact>
</mgrwt>
</event>
<event>
 6    1  0.1273846E-001  0.3000000E+03  0.7818608E-02  0.1093470E+00
         21   -1    0    0  501  502  0.00000000000E+00  0.00000000000E+00  0.91350546316E+00  0.91350546316E+00  0.00000000000E+00 0. -1.
         13   -1    0    0    0    0 -0.00000000000E+00 -0.00000000000E+00 -0.10000000000E+04  0.10000000000E+04  0.00000000000E+00 0.  1.
    9000005    2    1    2  501    0  0.50666869511E+01 -0.29699202977E+02 -0.49013498364E+03  0.49107102546E+03  0.32765655733E+01 0.  0.
         13    1    3    3    0    0  0.52002364068E+01 -0.23101853763E+02 -0.39168050048E+03  0.39239565819E+03  0.00000000000E+00 0.  1.
          1    1    3    3  501    0 -0.13354945571E+00 -0.65973492140E+01 -0.98454483161E+02  0.98675367273E+02  0.00000000000E+00 0.  1.
         -1    1    1    2    0  502 -0.50666869511E+01  0.29699202977E+02 -0.50895151089E+03  0.50984248000E+03  0.00000000000E+00 0. -1.
<mgrwt>
<rscale>  1 0.30000000E+03</rscale>
<asrwt>0</asrwt>
<pdfrwt beam="1">  1       21 0.33218451E-02 0.30000000E+03</pdfrwt>
<pdfrwt beam="2">0</pdfrwt>
<totfact> 0.57417994E+04</totfact>
</mgrwt>
</event>
<event>
 6    1  0.1273846E-001  0.3000000E+03  0.7818608E-02  0.1093470E+00
         21   -1    0    0  501  502  0.00000000000E+00  0.00000000000E+00  0.11755157444E+01  0.11755157444E+01  0.00000000000E+00 0. -1.
         13   -1    0    0    0    0 -0.00000000000E+00 -0.00000000000E+00 -0.10000000000E+04  0.10000000000E+04  0.00000000000E+00 0.  1.
    9000005    2    1    2  501    0  0.30425519226E+02  0.13353617643E+02 -0.61954096940E+03  0.62043936568E+03  0.31563264002E+01 0.  0.
         13    1    3    3    0    0  0.23077856809E+02  0.11306573638E+02 -0.46292476527E+03  0.46363753556E+03  0.00000000000E+00 0.  1.
          3    1    3    3  501    0  0.73476624173E+01  0.20470440056E+01 -0.15661620413E+03  0.15680183011E+03  0.00000000000E+00 0.  1.
         -3    1    1    2    0  502 -0.30425519226E+02 -0.13353617643E+02 -0.37928351486E+03  0.38073615007E+03  0.00000000000E+00 0. -1.
<mgrwt>
<rscale>  1 0.30000000E+03</rscale>
<asrwt>0</asrwt>
<pdfrwt beam="1">  1       21 0.42746117E-02 0.30000000E+03</pdfrwt>
<pdfrwt beam="2">0</pdfrwt>
<totfact> 0.37591265E+04</totfact>
</mgrwt>
</event>
<event>
 6    1  0.1273846E-001  0.3000000E+03  0.7818608E-02  0.1093470E+00
         21   -1    0    0  501  502  0.00000000000E+00  0.00000000000E+00  0.13996285185E+01  0.13996285185E+01  0.00000000000E+00 0. -1.
         13   -1    0    0    0    0 -0.00000000000E+00 -0.00000000000E+00 -0.10000000000E+04  0.10000000000E+04  0.00000000000E+00 0.  1.
    9000005    2    1    2  501    0 -0.27639017306E+02 -0.24799946987E+02 -0.55011848114E+03  0.55138300815E+03  0.37317195614E+01 0.  0.
         13    1    3    3    0    0 -0.14013844228E+02 -0.12131744613E+02 -0.30168641386E+03  0.30225528840E+03  0.00000000000E+00 0.  1.
          1    1    3    3  501    0 -0.13625173078E+02 -0.12668202374E+02 -0.24843206728E+03  0.24912771975E+03  0.00000000000E+00 0.  1.
         -1    1    1    2    0  502  0.27639017306E+02  0.24799946987E+02 -0.44848189034E+03  0.45001662037E+03  0.00000000000E+00 0. -1.
<mgrwt>
<rscale>  1 0.30000000E+03</rscale>
<asrwt>0</asrwt>
<pdfrwt beam="1">  1       21 0.50895690E-02 0.30000000E+03</pdfrwt>
<pdfrwt beam="2">0</pdfrwt>
<totfact> 0.27945484E+04</totfact>
</mgrwt>
</event>
<event>
 6    1  0.1273846E-001  0.3000000E+03  0.7818608E-02  0.1093470E+00
         21   -1    0    0  501  502  0.00000000000E+00  0.00000000000E+00  0.90920098412E+01  0.90920098412E+01  0.00000000000E+00 0. -1.
         13   -1    0    0    0    0 -0.00000000000E+00 -0.00000000000E+00 -0.10000000000E+04  0.10000000000E+04  0.00000000000E+00 0.  1.
    9000005    2    1    2  501    0 -0.69175907883E+02 -0.49750250615E+02 -0.71984852741E+03  0.72495537719E+03  0.10862911099E+02 0.  0.
         13    1    3    3    0    0 -0.16180396335E+02 -0.13629465007E+02 -0.14385665342E+03  0.14540393487E+03  0.00000000000E+00 0.  1.
          1    1    3    3  501    0 -0.52995511548E+02 -0.36120785608E+02 -0.57599187398E+03  0.57955144232E+03  0.00000000000E+00 0.  1.
         -1    1    1    2    0  502  0.69175907883E+02  0.49750250615E+02 -0.27105946275E+03  0.28413663265E+03  0.00000000000E+00 0. -1.
<mgrwt>
<rscale>  1 0.30000000E+03</rscale>
<asrwt>0</asrwt>
<pdfrwt beam="1">  1       21 0.33061924E-01 0.30000000E+03</pdfrwt>
<pdfrwt beam="2">0</pdfrwt>
<totfact> 0.89380572E+02</totfact>
</mgrwt>
</event>
<event>
 6    1  0.1273846E-001  0.3000000E+03  0.7818608E-02  0.1093470E+00
         21   -1    0    0  501  502  0.00000000000E+00  0.00000000000E+00  0.50191973324E+01  0.50191973324E+01  0.00000000000E+00 0. -1.
         13   -1    0    0    0    0 -0.00000000000E+00 -0.00000000000E+00 -0.10000000000E+04  0.10000000000E+04  0.00000000000E+00 0.  1.
    9000005    2    1    2  501    0 -0.61464403147E+02  0.14032258928E+02 -0.72622546788E+03  0.72896810221E+03  0.40356768999E+01 0.  0.
         13    1    3    3    0    0 -0.12485649088E+02  0.43566427076E+01 -0.14379445727E+03  0.14440123860E+03  0.00000000000E+00 0.  1.
          3    1    3    3  501    0 -0.48978754059E+02  0.96756162207E+01 -0.58243101061E+03  0.58456686360E+03  0.00000000000E+00 0.  1.
         -1    1    1    2    0  502  0.61464403147E+02 -0.14032258928E+02 -0.26875533479E+03  0.27605109513E+03  0.00000000000E+00 0. -1.
<mgrwt>
<rscale>  1 0.30000000E+03</rscale>
<asrwt>0</asrwt>
<pdfrwt beam="1">  1       21 0.18251665E-01 0.30000000E+03</pdfrwt>
<pdfrwt beam="2">0</pdfrwt>
<totfact> 0.28538800E+03</totfact>
</mgrwt>
</event>
<event>
 6    1  0.1273846E-001  0.3000000E+03  0.7818608E-02  0.1093470E+00
         21   -1    0    0  501  502  0.00000000000E+00  0.00000000000E+00  0.17526486141E+01  0.17526486141E+01  0.00000000000E+00 0. -1.
         13   -1    0    0    0    0 -0.00000000000E+00 -0.00000000000E+00 -0.10000000000E+04  0.10000000000E+04  0.00000000000E+00 0.  1.
    9000005    2    1    2  501    0 -0.33360764416E+02  0.20870208590E+02 -0.66886479893E+03  0.67002780470E+03  0.29383007583E+01 0.  0.
         13    1    3    3    0    0 -0.28015339405E+02  0.17313955640E+02 -0.57675008237E+03  0.57768961374E+03  0.00000000000E+00 0.  1.
          1    1    3    3  501    0 -0.53454250110E+01  0.35562529499E+01 -0.92114716555E+02  0.92338190959E+02  0.00000000000E+00 0.  1.
         -1    1    1    2    0  502  0.33360764416E+02 -0.20870208590E+02 -0.32938255246E+03  0.33172484392E+03  0.00000000000E+00 0. -1.
<mgrwt>
<rscale>  1 0.30000000E+03</rscale>
<asrwt>0</asrwt>
<pdfrwt beam="1">  1       21 0.63732811E-02 0.30000000E+03</pdfrwt>
<pdfrwt beam="2">0</pdfrwt>
<totfact> 0.18985967E+04</totfact>
</mgrwt>
</event>
<event>
 6    1  0.1273846E-001  0.3000000E+03  0.7818608E-02  0.1093470E+00
         21   -1    0    0  501  502  0.00000000000E+00  0.00000000000E+00  0.18097941375E+01  0.18097941375E+01  0.00000000000E+00 0. -1.
         13   -1    0    0    0    0 -0.00000000000E+00 -0.00000000000E+00 -0.10000000000E+04  0.10000000000E+04  0.00000000000E+00 0.  1.
    9000005    2    1    2  501    0 -0.32383654123E+02  0.15731126582E+02 -0.76532640899E+03  0.76617932647E+03  0.31746841551E+01 0.  0.
         13    1    3    3    0    0 -0.31585328867E+02  0.14971914758E+02 -0.74949300080E+03  0.75030763656E+03  0.00000000000E+00 0.  1.
          1    1    3    3  501    0 -0.79832525586E+00  0.75921182445E+00 -0.15833408189E+02  0.15871689913E+02  0.00000000000E+00 0.  1.
         -3    1    1    2    0  502  0.32383654123E+02 -0.15731126582E+02 -0.23286379687E+03  0.23563046767E+03  0.00000000000E+00 0. -1.
<mgrwt>
<rscale>  1 0.30000000E+03</rscale>
<asrwt>0</asrwt>
<pdfrwt beam="1">  1       21 0.65810835E-02 0.30000000E+03</pdfrwt>
<pdfrwt beam="2">0</pdfrwt>
<totfact> 0.17960225E+04</totfact>
</mgrwt>
</event>
<event>
 6    1  0.1273846E-001  0.3000000E+03  0.7818608E-02  0.1093470E+00
         21   -1    0    0  501  502  0.00000000000E+00  0.00000000000E+00  0.94939154736E+00  0.94939154736E+00  0.00000000000E+00 0. -1.
         13   -1    0    0    0    0 -0.00000000000E+00 -0.00000000000E+00 -0.10000000000E+04  0.10000000000E+04  0.00000000000E+00 0.  1.
    9000005    2    1    2  501    0 -0.10897768318E+02  0.28563921141E+02 -0.55058425562E+03  0.55144218519E+03  0.32866584790E+01 0.  0.
         13    1    3    3    0    0 -0.62156460183E+01  0.17629393856E+02 -0.36327934148E+03  0.36375996169E+03  0.00000000000E+00 0.  1.
          3    1    3    3  501    0 -0.46821222995E+01  0.10934527285E+02 -0.18730491414E+03  0.18768222350E+03  0.00000000000E+00 0.  1.
         -3    1    1    2    0  502  0.10897768318E+02 -0.28563921141E+02 -0.44846635284E+03  0.44950720636E+03  0.00000000000E+00 0. -1.
<mgrwt>
<rscale>  1 0.30000000E+03</rscale>
<asrwt>0</asrwt>
<pdfrwt beam="1">  1       21 0.34523402E-02 0.30000000E+03</pdfrwt>
<pdfrwt beam="2">0</pdfrwt>
<totfact> 0.53838152E+04</totfact>
</mgrwt>
</event>
<event>
 6    1  0.1273846E-001  0.3000000E+03  0.7818608E-02  0.1093470E+00
         21   -1    0    0  501  502  0.00000000000E+00  0.00000000000E+00  0.46930564388E+01  0.46930564388E+01  0.00000000000E+00 0. -1.
         13   -1    0    0    0    0 -0.00000000000E+00 -0.00000000000E+00 -0.10000000000E+04  0.10000000000E+04  0.00000000000E+00 0.  1.
    9000005    2    1    2  501    0 -0.42193334839E+02 -0.64092013051E+01 -0.89051787179E+03  0.89154666927E+03  0.34681619739E+01 0.  0.
         13    1    3    3    0    0 -0.19762395640E+02 -0.23399082613E+01 -0.38187552294E+03  0.38239370088E+03  0.00000000000E+00 0.  1.
          1    1    3    3  501    0 -0.22430939199E+02 -0.40692930438E+01 -0.50864234885E+03  0.50915296839E+03  0.00000000000E+00 0.  1.
         -1    1    1    2    0  502  0.42193334839E+02  0.64092013051E+01 -0.10478907178E+03  0.11314638717E+03  0.00000000000E+00 0. -1.
<mgrwt>
<rscale>  1 0.30000000E+03</rscale>
<asrwt>0</asrwt>
<pdfrwt beam="1">  1       21 0.17065696E-01 0.30000000E+03</pdfrwt>
<pdfrwt beam="2">0</pdfrwt>
<totfact> 0.32380406E+03</totfact>
</mgrwt>
</event>
<event>
 6    1  0.1273846E-001  0.3000000E+03  0.7818608E-02  0.1093470E+00
         21   -1    0    0  501  502  0.00000000000E+00  0.00000000000E+00  0.14021895756E+01  0.14021895756E+01  0.00000000000E+00 0. -1.
         13   -1    0    0    0    0 -0.00000000000E+00 -0.00000000000E+00 -0.10000000000E+04  0.10000000000E+04  0.00000000000E+00 0.  1.
    9000005    2    1    2  501    0 -0.26042479249E+02 -0.16802818404E+02 -0.77959036699E+03  0.78021266516E+03  0.31807452070E+01 0.  0.
         13    1    3    3    0    0 -0.24541415273E+02 -0.15702154328E+02 -0.74832062921E+03  0.74888757688E+03  0.00000000000E+00 0.  1.
          3    1    3    3  501    0 -0.15010639763E+01 -0.11006640752E+01 -0.31269737785E+02  0.31325088277E+02  0.00000000000E+00 0.  1.
         -1    1    1    2    0  502  0.26042479249E+02  0.16802818404E+02 -0.21900744343E+03  0.22118952441E+03  0.00000000000E+00 0. -1.
<mgrwt>
<rscale>  1 0.30000000E+03</rscale>
<asrwt>0</asrwt>
<pdfrwt beam="1">  1       21 0.50988819E-02 0.30000000E+03</pdfrwt>
<pdfrwt beam="2">0</pdfrwt>
<totfact> 0.27858445E+04</totfact>
</mgrwt>
</event>
<event>
 6    1  0.1273846E-001  0.3000000E+03  0.7818608E-02  0.1093470E+00
         21   -1    0    0  501  502  0.00000000000E+00  0.00000000000E+00  0.19345363837E+01  0.19345363837E+01  0.00000000000E+00 0. -1.
         13   -1    0    0    0    0 -0.00000000000E+00 -0.00000000000E+00 -0.10000000000E+04  0.10000000000E+04  0.00000000000E+00 0.  1.
    9000005    2    1    2  501    0  0.32639106629E+02 -0.29030333133E+02 -0.55222080023E+03  0.55395514467E+03  0.32277832572E+01 0.  0.
         13    1    3    3    0    0  0.21066440734E+02 -0.19005744882E+02 -0.33891429663E+03  0.34009985845E+03  0.00000000000E+00 0.  1.
          3    1    3    3  501    0  0.11572665895E+02 -0.10024588251E+02 -0.21330650360E+03  0.21385528622E+03  0.00000000000E+00 0.  1.
         -1    1    1    2    0  502 -0.32639106629E+02  0.29030333133E+02 -0.44584466339E+03  0.44797939171E+03  0.00000000000E+00 0. -1.
<mgrwt>
<rscale>  1 0.30000000E+03</rscale>
<asrwt>0</asrwt>
<pdfrwt beam="1">  1       21 0.70346926E-02 0.30000000E+03</pdfrwt>
<pdfrwt beam="2">0</pdfrwt>
<totfact> 0.15997028E+04</totfact>
</mgrwt>
</event>
<event>
 6    1  0.1273846E-001  0.3000000E+03  0.7818608E-02  0.1093470E+00
         21   -1    0    0  501  502  0.00000000000E+00  0.00000000000E+00  0.16455946206E+01  0.16455946206E+01  0.00000000000E+00 0. -1.
         13   -1    0    0    0    0 -0.00000000000E+00 -0.00000000000E+00 -0.10000000000E+04  0.10000000000E+04  0.00000000000E+00 0.  1.
    9000005    2    1    2  501    0 -0.37585768695E+02 -0.80950348040E+01 -0.65701977466E+03  0.65815243642E+03  0.33801900603E+01 0.  0.
         13    1    3    3    0    0 -0.34763133093E+02 -0.83160122115E+01 -0.61412267004E+03  0.61516199927E+03  0.00000000000E+00 0.  1.
          1    1    3    3  501    0 -0.28226356017E+01  0.22097740749E+00 -0.42897104613E+02  0.42990437156E+02  0.00000000000E+00 0.  1.
         -1    1    1    2    0  502  0.37585768695E+02  0.80950348040E+01 -0.34133463072E+03  0.34349315820E+03  0.00000000000E+00 0. -1.
<mgrwt>
<rscale>  1 0.30000000E+03</rscale>
<asrwt>0</asrwt>
<pdfrwt beam="1">  1       21 0.59839931E-02 0.30000000E+03</pdfrwt>
<pdfrwt beam="2">0</pdfrwt>
<totfact> 0.21168965E+04</totfact>
</mgrwt>
</event>
<event>
 6    1  0.1273846E-001  0.3000000E+03  0.7818608E-02  0.1093470E+00
         21   -1    0    0  501  502  0.00000000000E+00  0.00000000000E+00  0.20764186795E+01  0.20764186795E+01  0.00000000000E+00 0. -1.
         13   -1    0    0    0    0 -0.00000000000E+00 -0.00000000000E+00 -0.10000000000E+04  0.10000000000E+04  0.00000000000E+00 0.  1.
    9000005    2    1    2  501    0 -0.18305012821E+02  0.41664079174E+02 -0.50867006180E+03  0.51071099931E+03  0.30861072646E+01 0.  0.
         13    1    3    3    0    0 -0.14114770430E+02  0.29613422310E+02 -0.37660688796E+03  0.37803297421E+03  0.00000000000E+00 0.  1.
          3    1    3    3  501    0 -0.41902423911E+01  0.12050656864E+02 -0.13206317384E+03  0.13267802511E+03  0.00000000000E+00 0.  1.
         -1    1    1    2    0  502  0.18305012821E+02 -0.41664079174E+02 -0.48925351952E+03  0.49136541937E+03  0.00000000000E+00 0. -1.
<mgrwt>
<rscale>  1 0.30000000E+03</rscale>
<asrwt>0</asrwt>
<pdfrwt beam="1">  1       21 0.75506293E-02 0.30000000E+03</pdfrwt>
<pdfrwt beam="2">0</pdfrwt>
<totfact> 0.14136926E+04</totfact>
</mgrwt>
</event>
<event>
 6    1  0.1273846E-001  0.3000000E+03  0.7818608E-02  0.1093470E+00
         21   -1    0    0  501  502  0.00000000000E+00  0.00000000000E+00  0.17087490120E+01  0.17087490120E+01  0.00000000000E+00 0. -1.
         13   -1    0    0    0    0 -0.00000000000E+00 -0.00000000000E+00 -0.10000000000E+04  0.10000000000E+04  0.00000000000E+00 0.  1.
    9000005    2    1    2  501    0 -0.10577734135E+02  0.38703252340E+02 -0.61578918026E+03  0.61710809338E+03  0.40316484532E+01 0.  0.
         13    1    3    3    0    0 -0.71220687130E+01  0.20965379803E+02 -0.36168442856E+03  0.36236155546E+03  0.00000000000E+00 0.  1.
          3    1    3    3  501    0 -0.34556654218E+01  0.17737872536E+02 -0.25410475170E+03  0.25474653792E+03  0.00000000000E+00 0.  1.
         -3    1    1    2    0  502  0.10577734135E+02 -0.38703252340E+02 -0.38250207073E+03  0.38460065563E+03  0.00000000000E+00 0. -1.
<mgrwt>
<rscale>  1 0.30000000E+03</rscale>
<asrwt>0</asrwt>
<pdfrwt beam="1">  1       21 0.62136459E-02 0.30000000E+03</pdfrwt>
<pdfrwt beam="2">0</pdfrwt>
<totfact> 0.19836872E+04</totfact>
</mgrwt>
</event>
<event>
 6    1  0.1273846E-001  0.3000000E+03  0.7818608E-02  0.1093470E+00
         21   -1    0    0  501  502  0.00000000000E+00  0.00000000000E+00  0.41348893083E+01  0.41348893083E+01  0.00000000000E+00 0. -1.
         13   -1    0    0    0    0 -0.00000000000E+00 -0.00000000000E+00 -0.10000000000E+04  0.10000000000E+04  0.00000000000E+00 0.  1.
    9000005    2    1    2  501    0  0.83323690572E+01  0.44344219764E+02 -0.14110548029E+03  0.14818520389E+03  0.35014116997E+01 0.  0.
         13    1    3    3    0    0  0.60164900463E+00  0.52159697710E+01 -0.13221905375E+02  0.14226282154E+02  0.00000000000E+00 0.  1.
          3    1    3    3  501    0  0.77307200526E+01  0.39128249993E+02 -0.12788357491E+03  0.13395892173E+03  0.00000000000E+00 0.  1.
         -3    1    1    2    0  502 -0.83323690572E+01 -0.44344219764E+02 -0.85475963041E+03  0.85594968542E+03  0.00000000000E+00 0. -1.
<mgrwt>
<rscale>  1 0.30000000E+03</rscale>
<asrwt>0</asrwt>
<pdfrwt beam="1">  1       21 0.15035993E-01 0.30000000E+03</pdfrwt>
<pdfrwt beam="2">0</pdfrwt>
<totfact> 0.40998065E+03</totfact>
</mgrwt>
</event>
<event>
 6    1  0.1273846E-001  0.3000000E+03  0.7818608E-02  0.1093470E+00
         21   -1    0    0  501  502  0.00000000000E+00  0.00000000000E+00  0.13477530897E+01  0.13477530897E+01  0.00000000000E+00 0. -1.
         13   -1    0    0    0    0 -0.00000000000E+00 -0.00000000000E+00 -0.10000000000E+04  0.10000000000E+04  0.00000000000E+00 0.  1.
    9000005    2    1    2  501    0 -0.32029711920E+02 -0.15369118801E+02 -0.58654657973E+03  0.58771362348E+03  0.10406765539E+02 0.  0.
         13    1    3    3    0    0 -0.15683050394E+01  0.91573556760E+00 -0.64512023294E+02  0.64537580539E+02  0.00000000000E+00 0.  1.
          1    1    3    3  501    0 -0.30461406880E+02 -0.16284854369E+02 -0.52203455644E+03  0.52317604294E+03  0.00000000000E+00 0.  1.
         -3    1    1    2    0  502  0.32029711920E+02  0.15369118801E+02 -0.41210566718E+03  0.41363412961E+03  0.00000000000E+00 0. -1.
<mgrwt>
<rscale>  1 0.30000000E+03</rscale>
<asrwt>0</asrwt>
<pdfrwt beam="1">  1       21 0.49009307E-02 0.30000000E+03</pdfrwt>
<pdfrwt beam="2">0</pdfrwt>
<totfact> 0.29803832E+04</totfact>
</mgrwt>
</event>
<event>
 6    1  0.1273846E-001  0.3000000E+03  0.7818608E-02  0.1093470E+00
         21   -1    0    0  501  502  0.00000000000E+00  0.00000000000E+00  0.23090687442E+02  0.23090687442E+02  0.00000000000E+00 0. -1.
         13   -1    0    0    0    0 -0.00000000000E+00 -0.00000000000E+00 -0.10000000000E+04  0.10000000000E+04  0.00000000000E+00 0.  1.
    9000005    2    1    2  501    0 -0.35659822470E+02 -0.32815312753E+02 -0.97327722014E+03  0.97449377617E+03  0.45940041414E+01 0.  0.
         13    1    3    3    0    0 -0.23367402689E+02 -0.24272586715E+02 -0.68537584939E+03  0.68620350400E+03  0.00000000000E+00 0.  1.
          1    1    3    3  501    0 -0.12292419780E+02 -0.85427260387E+01 -0.28790137075E+03  0.28829027217E+03  0.00000000000E+00 0.  1.
         -1    1    1    2    0  502  0.35659822470E+02  0.32815312753E+02 -0.36320924223E+01  0.48596911270E+02  0.00000000000E+00 0. -1.
<mgrwt>
<rscale>  1 0.30000000E+03</rscale>
<asrwt>0</asrwt>
<pdfrwt beam="1">  1       21 0.83966313E-01 0.30000000E+03</pdfrwt>
<pdfrwt beam="2">0</pdfrwt>
<totfact> 0.11442961E+02</totfact>
</mgrwt>
</event>
<event>
 6    1  0.1273846E-001  0.3000000E+03  0.7818608E-02  0.1093470E+00
         21   -1    0    0  501  502  0.00000000000E+00  0.00000000000E+00  0.24409482047E+01  0.24409482047E+01  0.00000000000E+00 0. -1.
         13   -1    0    0    0    0 -0.00000000000E+00 -0.00000000000E+00 -0.10000000000E+04  0.10000000000E+04  0.00000000000E+00 0.  1.
    9000005    2    1    2  501    0  0.21856272819E+02 -0.34361327542E+02 -0.78083122036E+03  0.78192031332E+03  0.66018330052E+01 0.  0.
         13    1    3    3    0    0  0.11033155348E+02 -0.15926306196E+02 -0.31089633558E+03  0.31149945300E+03  0.00000000000E+00 0.  1.
          1    1    3    3  501    0  0.10823117472E+02 -0.18435021346E+02 -0.46993488478E+03  0.47042086032E+03  0.00000000000E+00 0.  1.
         -1    1    1    2    0  502 -0.21856272819E+02  0.34361327542E+02 -0.21672783144E+03  0.22052063489E+03  0.00000000000E+00 0. -1.
<mgrwt>
<rscale>  1 0.30000000E+03</rscale>
<asrwt>0</asrwt>
<pdfrwt beam="1">  1       21 0.88761940E-02 0.30000000E+03</pdfrwt>
<pdfrwt beam="2">0</pdfrwt>
<totfact> 0.10635762E+04</totfact>
</mgrwt>
</event>
<event>
 6    1  0.1273846E-001  0.3000000E+03  0.7818608E-02  0.1093470E+00
         21   -1    0    0  501  502  0.00000000000E+00  0.00000000000E+00  0.10483137664E+01  0.10483137664E+01  0.00000000000E+00 0. -1.
         13   -1    0    0    0    0 -0.00000000000E+00 -0.00000000000E+00 -0.10000000000E+04  0.10000000000E+04  0.00000000000E+00 0.  1.
    9000005    2    1    2  501    0 -0.34595548523E+01  0.30247945334E+02 -0.66724339344E+03  0.66794577967E+03  0.33032962781E+01 0.  0.
         13    1    3    3    0    0 -0.65570929260E+00  0.41796020343E+01 -0.70671304059E+02  0.70797826557E+02  0.00000000000E+00 0.  1.
          1    1    3    3  501    0 -0.28038455597E+01  0.26068343299E+02 -0.59657208939E+03  0.59714795311E+03  0.00000000000E+00 0.  1.
         -1    1    1    2    0  502  0.34595548523E+01 -0.30247945334E+02 -0.33170829279E+03  0.33310253410E+03  0.00000000000E+00 0. -1.
<mgrwt>
<rscale>  1 0.30000000E+03</rscale>
<asrwt>0</asrwt>
<pdfrwt beam="1">  1       21 0.38120581E-02 0.30000000E+03</pdfrwt>
<pdfrwt beam="2">0</pdfrwt>
<totfact> 0.45592730E+04</totfact>
</mgrwt>
</event>
<event>
 6    1  0.1273846E-001  0.3000000E+03  0.7818608E-02  0.1093470E+00
         21   -1    0    0  501  502  0.00000000000E+00  0.00000000000E+00  0.11312335029E+01  0.11312335029E+01  0.00000000000E+00 0. -1.
         13   -1    0    0    0    0 -0.00000000000E+00 -0.00000000000E+00 -0.10000000000E+04  0.10000000000E+04  0.00000000000E+00 0.  1.
    9000005    2    1    2  501    0 -0.21688943432E+02 -0.24506282960E+02 -0.61045644675E+03  0.61134270326E+03  0.34437317168E+01 0.  0.
         13    1    3    3    0    0 -0.17678837068E+01 -0.28654908612E+01 -0.48245237856E+02  0.48362582917E+02  0.00000000000E+00 0.  1.
          1    1    3    3  501    0 -0.19921059726E+02 -0.21640792099E+02 -0.56221120889E+03  0.56298012035E+03  0.00000000000E+00 0.  1.
         -1    1    1    2    0  502  0.21688943432E+02  0.24506282960E+02 -0.38841231975E+03  0.38978853024E+03  0.00000000000E+00 0. -1.
<mgrwt>
<rscale>  1 0.30000000E+03</rscale>
<asrwt>0</asrwt>
<pdfrwt beam="1">  1       21 0.41135850E-02 0.30000000E+03</pdfrwt>
<pdfrwt beam="2">0</pdfrwt>
<totfact> 0.40109260E+04</totfact>
</mgrwt>
</event>
<event>
 6    1  0.1273846E-001  0.3000000E+03  0.7818608E-02  0.1093470E+00
         21   -1    0    0  501  502  0.00000000000E+00  0.00000000000E+00  0.24663402203E+01  0.24663402203E+01  0.00000000000E+00 0. -1.
         13   -1    0    0    0    0 -0.00000000000E+00 -0.00000000000E+00 -0.10000000000E+04  0.10000000000E+04  0.00000000000E+00 0.  1.
    9000005    2    1    2  501    0  0.48746008309E+02  0.84516195068E+01 -0.45733503769E+03  0.46000698276E+03  0.18666232651E+01 0.  0.
         13    1    3    3    0    0  0.31911013628E+02  0.61868592737E+01 -0.30597228454E+03  0.30769405084E+03  0.00000000000E+00 0.  1.
          1    1    3    3  501    0  0.16834994681E+02  0.22647602331E+01 -0.15136275316E+03  0.15231293191E+03  0.00000000000E+00 0.  1.
         -3    1    1    2    0  502 -0.48746008309E+02 -0.84516195068E+01 -0.54019862209E+03  0.54245935747E+03  0.00000000000E+00 0. -1.
<mgrwt>
<rscale>  1 0.30000000E+03</rscale>
<asrwt>0</asrwt>
<pdfrwt beam="1">  1       21 0.89685288E-02 0.30000000E+03</pdfrwt>
<pdfrwt beam="2">0</pdfrwt>
<totfact> 0.10442686E+04</totfact>
</mgrwt>
</event>
<event>
 6    1  0.1273846E-001  0.3000000E+03  0.7818608E-02  0.1093470E+00
         21   -1    0    0  501  502  0.00000000000E+00  0.00000000000E+00  0.98544594623E+00  0.98544594623E+00  0.00000000000E+00 0. -1.
         13   -1    0    0    0    0 -0.00000000000E+00 -0.00000000000E+00 -0.10000000000E+04  0.10000000000E+04  0.00000000000E+00 0.  1.
    9000005    2    1    2  501    0 -0.29064250075E+02  0.10837931319E+02 -0.43592177821E+03  0.43703893643E+03  0.36116271523E+01 0.  0.
         13    1    3    3    0    0  0.56764379039E-01 -0.91013744893E-01 -0.85438101477E+00  0.86108804131E+00  0.00000000000E+00 0.  1.
          1    1    3    3  501    0 -0.29121014454E+02  0.10928945064E+02 -0.43506739719E+03  0.43617784839E+03  0.00000000000E+00 0.  1.
         -1    1    1    2    0  502  0.29064250075E+02 -0.10837931319E+02 -0.56309277585E+03  0.56394650952E+03  0.00000000000E+00 0. -1.
<mgrwt>
<rscale>  1 0.30000000E+03</rscale>
<asrwt>0</asrwt>
<pdfrwt beam="1">  1       21 0.35834474E-02 0.30000000E+03</pdfrwt>
<pdfrwt beam="2">0</pdfrwt>
<totfact> 0.50579674E+04</totfact>
</mgrwt>
</event>
<event>
 6    1  0.1273846E-001  0.3000000E+03  0.7818608E-02  0.1093470E+00
         21   -1    0    0  501  502  0.00000000000E+00  0.00000000000E+00  0.96843929257E+00  0.96843929257E+00  0.00000000000E+00 0. -1.
         13   -1    0    0    0    0 -0.00000000000E+00 -0.00000000000E+00 -0.10000000000E+04  0.10000000000E+04  0.00000000000E+00 0.  1.
    9000005    2    1    2  501    0 -0.29814294772E+02  0.38915268954E+01 -0.62422632679E+03  0.62495913152E+03  0.33723681735E+01 0.  0.
         13    1    3    3    0    0 -0.14704733221E+02  0.22131060492E+01 -0.34301124713E+03  0.34333342784E+03  0.00000000000E+00 0.  1.
          1    1    3    3  501    0 -0.15109561552E+02  0.16784208462E+01 -0.28121507966E+03  0.28162570368E+03  0.00000000000E+00 0.  1.
         -1    1    1    2    0  502  0.29814294772E+02 -0.38915268954E+01 -0.37480523392E+03  0.37600930777E+03  0.00000000000E+00 0. -1.
<mgrwt>
<rscale>  1 0.30000000E+03</rscale>
<asrwt>0</asrwt>
<pdfrwt beam="1">  1       21 0.35216049E-02 0.30000000E+03</pdfrwt>
<pdfrwt beam="2">0</pdfrwt>
<totfact> 0.52077285E+04</totfact>
</mgrwt>
</event>
<event>
 6    1  0.1273846E-001  0.3000000E+03  0.7818608E-02  0.1093470E+00
         21   -1    0    0  501  502  0.00000000000E+00  0.00000000000E+00  0.47914926332E+01  0.47914926332E+01  0.00000000000E+00 0. -1.
         13   -1    0    0    0    0 -0.00000000000E+00 -0.00000000000E+00 -0.10000000000E+04  0.10000000000E+04  0.00000000000E+00 0.  1.
    9000005    2    1    2  501    0  0.37732050761E+02  0.33186025261E+02 -0.84291181554E+03  0.84441910639E+03  0.42753405033E+01 0.  0.
         13    1    3    3    0    0  0.85776755713E+01  0.96258065264E+01 -0.19913656286E+03  0.19955350996E+03  0.00000000000E+00 0.  1.
          1    1    3    3  501    0  0.29154375190E+02  0.23560218734E+02 -0.64377525268E+03  0.64486559643E+03  0.00000000000E+00 0.  1.
         -1    1    1    2    0  502 -0.37732050761E+02 -0.33186025261E+02 -0.15229669183E+03  0.16037238624E+03  0.00000000000E+00 0. -1.
<mgrwt>
<rscale>  1 0.30000000E+03</rscale>
<asrwt>0</asrwt>
<pdfrwt beam="1">  1       21 0.17423646E-01 0.30000000E+03</pdfrwt>
<pdfrwt beam="2">0</pdfrwt>
<totfact> 0.31144092E+03</totfact>
</mgrwt>
</event>
<event>
 6    1  0.1273846E-001  0.3000000E+03  0.7818608E-02  0.1093470E+00
         21   -1    0    0  501  502  0.00000000000E+00  0.00000000000E+00  0.21592166524E+01  0.21592166524E+01  0.00000000000E+00 0. -1.
         13   -1    0    0    0    0 -0.00000000000E+00 -0.00000000000E+00 -0.10000000000E+04  0.10000000000E+04  0.00000000000E+00 0.  1.
    9000005    2    1    2  501    0 -0.15210027078E+02  0.29162589084E+02 -0.14628936068E+03  0.14997283624E+03  0.30778293827E+01 0.  0.
         13    1    3    3    0    0 -0.55316124896E+01  0.87466641093E+01 -0.40926022706E+02  0.42214241724E+02  0.00000000000E+00 0.  1.
          3    1    3    3  501    0 -0.96784145883E+01  0.20415924975E+02 -0.10536333798E+03  0.10775859451E+03  0.00000000000E+00 0.  1.
         -1    1    1    2    0  502  0.15210027078E+02 -0.29162589084E+02 -0.85155142266E+03  0.85218638042E+03  0.00000000000E+00 0. -1.
<mgrwt>
<rscale>  1 0.30000000E+03</rscale>
<asrwt>0</asrwt>
<pdfrwt beam="1">  1       21 0.78517135E-02 0.30000000E+03</pdfrwt>
<pdfrwt beam="2">0</pdfrwt>
<totfact> 0.13200405E+04</totfact>
</mgrwt>
</event>
<event>
 6    1  0.1273846E-001  0.3000000E+03  0.7818608E-02  0.1093470E+00
         21   -1    0    0  501  502  0.00000000000E+00  0.00000000000E+00  0.21043691887E+01  0.21043691887E+01  0.00000000000E+00 0. -1.
         13   -1    0    0    0    0 -0.00000000000E+00 -0.00000000000E+00 -0.10000000000E+04  0.10000000000E+04  0.00000000000E+00 0.  1.
    9000005    2    1    2  501    0  0.34396738457E+02 -0.11315709088E+02 -0.80594009889E+03  0.80676336703E+03  0.40628187586E+01 0.  0.
         13    1    3    3    0    0  0.31986303941E+02 -0.10345605815E+02 -0.72064531637E+03  0.72142901744E+03  0.00000000000E+00 0.  1.
          1    1    3    3  501    0  0.24104345162E+01 -0.97010327313E+00 -0.85294782526E+02  0.85334349597E+02  0.00000000000E+00 0.  1.
         -3    1    1    2    0  502 -0.34396738457E+02  0.11315709088E+02 -0.19195553192E+03  0.19534100215E+03  0.00000000000E+00 0. -1.
<mgrwt>
<rscale>  1 0.30000000E+03</rscale>
<asrwt>0</asrwt>
<pdfrwt beam="1">  1       21 0.76522677E-02 0.30000000E+03</pdfrwt>
<pdfrwt beam="2">0</pdfrwt>
<totfact> 0.13809619E+04</totfact>
</mgrwt>
</event>
<event>
 6    1  0.1273846E-001  0.3000000E+03  0.7818608E-02  0.1093470E+00
         21   -1    0    0  501  502  0.00000000000E+00  0.00000000000E+00  0.20936713729E+01  0.20936713729E+01  0.00000000000E+00 0. -1.
         13   -1    0    0    0    0 -0.00000000000E+00 -0.00000000000E+00 -0.10000000000E+04  0.10000000000E+04  0.00000000000E+00 0.  1.
    9000005    2    1    2  501    0 -0.15787712232E+02  0.35537908738E+02 -0.24145858490E+03  0.24464705028E+03  0.61429776078E+01 0.  0.
         13    1    3    3    0    0 -0.15564408120E+02  0.30513834930E+02 -0.21556965290E+03  0.21827418577E+03  0.00000000000E+00 0.  1.
          3    1    3    3  501    0 -0.22330411217E+00  0.50240738082E+01 -0.25888931998E+02  0.26372864508E+02  0.00000000000E+00 0.  1.
         -3    1    1    2    0  502  0.15787712232E+02 -0.35537908738E+02 -0.75644774373E+03  0.75744662109E+03  0.00000000000E+00 0. -1.
<mgrwt>
<rscale>  1 0.30000000E+03</rscale>
<asrwt>0</asrwt>
<pdfrwt beam="1">  1       21 0.76133665E-02 0.30000000E+03</pdfrwt>
<pdfrwt beam="2">0</pdfrwt>
<totfact> 0.13933496E+04</totfact>
</mgrwt>
</event>
<event>
 6    1  0.1273846E-001  0.3000000E+03  0.7818608E-02  0.1093470E+00
         21   -1    0    0  501  502  0.00000000000E+00  0.00000000000E+00  0.16541866274E+01  0.16541866274E+01  0.00000000000E+00 0. -1.
         13   -1    0    0    0    0 -0.00000000000E+00 -0.00000000000E+00 -0.10000000000E+04  0.10000000000E+04  0.00000000000E+00 0.  1.
    9000005    2    1    2  501    0  0.27647237566E+02 -0.29266475475E+02 -0.56524733522E+03  0.56668845452E+03  0.32184124114E+01 0.  0.
         13    1    3    3    0    0  0.11158152019E+02 -0.12162307864E+02 -0.25398322901E+03  0.25451897121E+03  0.00000000000E+00 0.  1.
          1    1    3    3  501    0  0.16489085547E+02 -0.17104167611E+02 -0.31126410622E+03  0.31216948331E+03  0.00000000000E+00 0.  1.
         -1    1    1    2    0  502 -0.27647237566E+02  0.29266475475E+02 -0.43309847815E+03  0.43496573211E+03  0.00000000000E+00 0. -1.
<mgrwt>
<rscale>  1 0.30000000E+03</rscale>
<asrwt>0</asrwt>
<pdfrwt beam="1">  1       21 0.60152368E-02 0.30000000E+03</pdfrwt>
<pdfrwt beam="2">0</pdfrwt>
<totfact> 0.20979692E+04</totfact>
</mgrwt>
</event>
<event>
 6    1  0.1273846E-001  0.3000000E+03  0.7818608E-02  0.1093470E+00
         21   -1    0    0  501  502  0.00000000000E+00  0.00000000000E+00  0.22330052866E+01  0.22330052866E+01  0.00000000000E+00 0. -1.
         13   -1    0    0    0    0 -0.00000000000E+00 -0.00000000000E+00 -0.10000000000E+04  0.10000000000E+04  0.00000000000E+00 0.  1.
    9000005    2    1    2  501    0  0.11510516927E+01 -0.38605068831E+02 -0.21212706620E+03  0.21564431128E+03  0.35917286540E+01 0.  0.
         13    1    3    3    0    0 -0.12601873756E+01 -0.14881009290E+02 -0.83873467880E+02  0.85192670600E+02  0.00000000000E+00 0.  1.
          3    1    3    3  501    0  0.24112390683E+01 -0.23724059541E+02 -0.12825359832E+03  0.13045164068E+03  0.00000000000E+00 0.  1.
         -3    1    1    2    0  502 -0.11510516927E+01  0.38605068831E+02 -0.78563992851E+03  0.78658869400E+03  0.00000000000E+00 0. -1.
<mgrwt>
<rscale>  1 0.30000000E+03</rscale>
<asrwt>0</asrwt>
<pdfrwt beam="1">  1       21 0.81200363E-02 0.30000000E+03</pdfrwt>
<pdfrwt beam="2">0</pdfrwt>
<totfact> 0.12443908E+04</totfact>
</mgrwt>
</event>
<event>
 6    1  0.1273846E-001  0.3000000E+03  0.7818608E-02  0.1093470E+00
         21   -1    0    0  501  502  0.00000000000E+00  0.00000000000E+00  0.10993279956E+01  0.10993279956E+01  0.00000000000E+00 0. -1.
         13   -1    0    0    0    0 -0.00000000000E+00 -0.00000000000E+00 -0.10000000000E+04  0.10000000000E+04  0.00000000000E+00 0.  1.
    9000005    2    1    2  501    0  0.16986642141E+02  0.28252593449E+02 -0.45955959009E+03  0.46075170129E+03  0.32184388213E+01 0.  0.
         13    1    3    3    0    0  0.54564664038E+01  0.69755246642E+01 -0.11064505278E+03  0.11099891294E+03  0.00000000000E+00 0.  1.
          1    1    3    3  501    0  0.11530175737E+02  0.21277068785E+02 -0.34891453732E+03  0.34975278835E+03  0.00000000000E+00 0.  1.
         -3    1    1    2    0  502 -0.16986642141E+02 -0.28252593449E+02 -0.53934108191E+03  0.54034762670E+03  0.00000000000E+00 0. -1.
<mgrwt>
<rscale>  1 0.30000000E+03</rscale>
<asrwt>0</asrwt>
<pdfrwt beam="1">  1       21 0.39975648E-02 0.30000000E+03</pdfrwt>
<pdfrwt beam="2">0</pdfrwt>
<totfact> 0.42090467E+04</totfact>
</mgrwt>
</event>
<event>
 6    1  0.1273846E-001  0.3000000E+03  0.7818608E-02  0.1093470E+00
         21   -1    0    0  501  502  0.00000000000E+00  0.00000000000E+00  0.29841927305E+01  0.29841927305E+01  0.00000000000E+00 0. -1.
         13   -1    0    0    0    0 -0.00000000000E+00 -0.00000000000E+00 -0.10000000000E+04  0.10000000000E+04  0.00000000000E+00 0.  1.
    9000005    2    1    2  501    0  0.42445415646E+02 -0.31705826755E+02 -0.37868076726E+03  0.38238360099E+03  0.33499339459E+01 0.  0.
         13    1    3    3    0    0  0.22200196145E+02 -0.15919840009E+02 -0.20663641131E+03  0.20843439374E+03  0.00000000000E+00 0.  1.
          1    1    3    3  501    0  0.20245219500E+02 -0.15785986746E+02 -0.17204435595E+03  0.17394920725E+03  0.00000000000E+00 0.  1.
         -3    1    1    2    0  502 -0.42445415646E+02  0.31705826755E+02 -0.61833504001E+03  0.62060059174E+03  0.00000000000E+00 0. -1.
<mgrwt>
<rscale>  1 0.30000000E+03</rscale>
<asrwt>0</asrwt>
<pdfrwt beam="1">  1       21 0.10851633E-01 0.30000000E+03</pdfrwt>
<pdfrwt beam="2">0</pdfrwt>
<totfact> 0.74312803E+03</totfact>
</mgrwt>
</event>
<event>
 6    1  0.1273846E-001  0.3000000E+03  0.7818608E-02  0.1093470E+00
         21   -1    0    0  501  502  0.00000000000E+00  0.00000000000E+00  0.17136451215E+02  0.17136451215E+02  0.00000000000E+00 0. -1.
         13   -1    0    0    0    0 -0.00000000000E+00 -0.00000000000E+00 -0.10000000000E+04  0.10000000000E+04  0.00000000000E+00 0.  1.
    9000005    2    1    2  501    0 -0.36476574341E+02  0.33650708257E+01 -0.97967401067E+03  0.98036639097E+03  0.39024585571E+01 0.  0.
         13    1    3    3    0    0 -0.80811402906E+01  0.23463314043E+01 -0.21431708003E+03  0.21448221579E+03  0.00000000000E+00 0.  1.
          1    1    3    3  501    0 -0.28395434050E+02  0.10187394214E+01 -0.76535693064E+03  0.76588417517E+03  0.00000000000E+00 0.  1.
         -3    1    1    2    0  502  0.36476574341E+02 -0.33650708257E+01 -0.31895381173E+01  0.36770060249E+02  0.00000000000E+00 0. -1.
<mgrwt>
<rscale>  1 0.30000000E+03</rscale>
<asrwt>0</asrwt>
<pdfrwt beam="1">  1       21 0.62314499E-01 0.30000000E+03</pdfrwt>
<pdfrwt beam="2">0</pdfrwt>
<totfact> 0.23054971E+02</totfact>
</mgrwt>
</event>
<event>
 6    1  0.1273846E-001  0.3000000E+03  0.7818608E-02  0.1093470E+00
         21   -1    0    0  501  502  0.00000000000E+00  0.00000000000E+00  0.54166765811E+01  0.54166765811E+01  0.00000000000E+00 0. -1.
         13   -1    0    0    0    0 -0.00000000000E+00 -0.00000000000E+00 -0.10000000000E+04  0.10000000000E+04  0.00000000000E+00 0.  1.
    9000005    2    1    2  501    0  0.34156624762E+02  0.35706696186E+02 -0.86979660604E+03  0.87120278757E+03  0.25530441313E+01 0.  0.
         13    1    3    3    0    0  0.16829496122E+02  0.16424229578E+02 -0.39638374301E+03  0.39708067062E+03  0.00000000000E+00 0.  1.
          3    1    3    3  501    0  0.17327128640E+02  0.19282466608E+02 -0.47341286303E+03  0.47412211696E+03  0.00000000000E+00 0.  1.
         -1    1    1    2    0  502 -0.34156624762E+02 -0.35706696186E+02 -0.12478671738E+03  0.13421388901E+03  0.00000000000E+00 0. -1.
<mgrwt>
<rscale>  1 0.30000000E+03</rscale>
<asrwt>0</asrwt>
<pdfrwt beam="1">  1       21 0.19697047E-01 0.30000000E+03</pdfrwt>
<pdfrwt beam="2">0</pdfrwt>
<totfact> 0.24700778E+03</totfact>
</mgrwt>
</event>
<event>
 6    1  0.1273846E-001  0.3000000E+03  0.7818608E-02  0.1093470E+00
         21   -1    0    0  501  502  0.00000000000E+00  0.00000000000E+00  0.17146729297E+01  0.17146729297E+01  0.00000000000E+00 0. -1.
         13   -1    0    0    0    0 -0.00000000000E+00 -0.00000000000E+00 -0.10000000000E+04  0.10000000000E+04  0.00000000000E+00 0.  1.
    9000005    2    1    2  501    0 -0.34147090101E+02 -0.22223722965E+01 -0.78047523190E+03  0.78123292707E+03  0.35122673324E+01 0.  0.
         13    1    3    3    0    0 -0.10049948333E+02 -0.61329230418E+00 -0.19494178326E+03  0.19520163025E+03  0.00000000000E+00 0.  1.
          1    1    3    3  501    0 -0.24097141768E+02 -0.16090799923E+01 -0.58553344864E+03  0.58603129682E+03  0.00000000000E+00 0.  1.
         -3    1    1    2    0  502  0.34147090101E+02  0.22223722965E+01 -0.21781009517E+03  0.22048174586E+03  0.00000000000E+00 0. -1.
<mgrwt>
<rscale>  1 0.30000000E+03</rscale>
<asrwt>0</asrwt>
<pdfrwt beam="1">  1       21 0.62351874E-02 0.30000000E+03</pdfrwt>
<pdfrwt beam="2">0</pdfrwt>
<totfact> 0.19718636E+04</totfact>
</mgrwt>
</event>
<event>
 6    1  0.1273846E-001  0.3000000E+03  0.7818608E-02  0.1093470E+00
         21   -1    0    0  501  502  0.00000000000E+00  0.00000000000E+00  0.10211260180E+01  0.10211260180E+01  0.00000000000E+00 0. -1.
         13   -1    0    0    0    0 -0.00000000000E+00 -0.00000000000E+00 -0.10000000000E+04  0.10000000000E+04  0.00000000000E+00 0.  1.
    9000005    2    1    2  501    0 -0.61690844608E+01 -0.30750980011E+02 -0.41290213638E+03  0.41410578057E+03  0.34267903484E+01 0.  0.
         13    1    3    3    0    0 -0.45881008525E+01 -0.23238781301E+02 -0.32995346755E+03  0.33080263357E+03  0.00000000000E+00 0.  1.
          3    1    3    3  501    0 -0.15809836082E+01 -0.75121987099E+01 -0.82948668834E+02  0.83303146999E+02  0.00000000000E+00 0.  1.
         -1    1    1    2    0  502  0.61690844608E+01  0.30750980011E+02 -0.58607673760E+03  0.58691534545E+03  0.00000000000E+00 0. -1.
<mgrwt>
<rscale>  1 0.30000000E+03</rscale>
<asrwt>0</asrwt>
<pdfrwt beam="1">  1       21 0.37131933E-02 0.30000000E+03</pdfrwt>
<pdfrwt beam="2">0</pdfrwt>
<totfact> 0.47649891E+04</totfact>
</mgrwt>
</event>
<event>
 6    1  0.1273846E-001  0.3000000E+03  0.7818608E-02  0.1093470E+00
         21   -1    0    0  501  502  0.00000000000E+00  0.00000000000E+00  0.13457897730E+01  0.13457897730E+01  0.00000000000E+00 0. -1.
         13   -1    0    0    0    0 -0.00000000000E+00 -0.00000000000E+00 -0.10000000000E+04  0.10000000000E+04  0.00000000000E+00 0.  1.
    9000005    2    1    2  501    0 -0.19687199219E+02 -0.29208761680E+02 -0.63669537173E+03  0.63767706918E+03  0.32110127894E+01 0.  0.
         13    1    3    3    0    0 -0.88592829841E+01 -0.10586600319E+02 -0.23721106571E+03  0.23761240014E+03  0.00000000000E+00 0.  1.
          3    1    3    3  501    0 -0.10827916235E+02 -0.18622161361E+02 -0.39948430601E+03  0.40006466904E+03  0.00000000000E+00 0.  1.
         -3    1    1    2    0  502  0.19687199219E+02  0.29208761680E+02 -0.36195883850E+03  0.36366872059E+03  0.00000000000E+00 0. -1.
<mgrwt>
<rscale>  1 0.30000000E+03</rscale>
<asrwt>0</asrwt>
<pdfrwt beam="1">  1       21 0.48937913E-02 0.30000000E+03</pdfrwt>
<pdfrwt beam="2">0</pdfrwt>
<totfact> 0.29877919E+04</totfact>
</mgrwt>
</event>
<event>
 6    1  0.1273846E-001  0.3000000E+03  0.7818608E-02  0.1093470E+00
         21   -1    0    0  501  502  0.00000000000E+00  0.00000000000E+00  0.18924424133E+01  0.18924424133E+01  0.00000000000E+00 0. -1.
         13   -1    0    0    0    0 -0.00000000000E+00 -0.00000000000E+00 -0.10000000000E+04  0.10000000000E+04  0.00000000000E+00 0.  1.
    9000005    2    1    2  501    0 -0.31562403294E+02  0.23190864167E+01 -0.84246627980E+03  0.84306621405E+03  0.31056749767E+01 0.  0.
         13    1    3    3    0    0 -0.11314682286E+02 -0.23492462856E-01 -0.26916043957E+03  0.26939815296E+03  0.00000000000E+00 0.  1.
          3    1    3    3  501    0 -0.20247721008E+02  0.23425788795E+01 -0.57330584022E+03  0.57366806109E+03  0.00000000000E+00 0.  1.
         -3    1    1    2    0  502  0.31562403294E+02 -0.23190864167E+01 -0.15564127779E+03  0.15882622836E+03  0.00000000000E+00 0. -1.
<mgrwt>
<rscale>  1 0.30000000E+03</rscale>
<asrwt>0</asrwt>
<pdfrwt beam="1">  1       21 0.68816233E-02 0.30000000E+03</pdfrwt>
<pdfrwt beam="2">0</pdfrwt>
<totfact> 0.16621067E+04</totfact>
</mgrwt>
</event>
<event>
 6    1  0.1273846E-001  0.3000000E+03  0.7818608E-02  0.1093470E+00
         21   -1    0    0  501  502  0.00000000000E+00  0.00000000000E+00  0.36939916187E+01  0.36939916187E+01  0.00000000000E+00 0. -1.
         13   -1    0    0    0    0 -0.00000000000E+00 -0.00000000000E+00 -0.10000000000E+04  0.10000000000E+04  0.00000000000E+00 0.  1.
    9000005    2    1    2  501    0  0.12354874824E+02  0.43162760161E+02 -0.83622827748E+03  0.83743952784E+03  0.34005780360E+01 0.  0.
         13    1    3    3    0    0  0.20366954609E+01  0.73216510981E+01 -0.16687018553E+03  0.16704314869E+03  0.00000000000E+00 0.  1.
          3    1    3    3  501    0  0.10318179363E+02  0.35841109063E+02 -0.66935809194E+03  0.67039637915E+03  0.00000000000E+00 0.  1.
         -3    1    1    2    0  502 -0.12354874824E+02 -0.43162760161E+02 -0.16007773090E+03  0.16625446378E+03  0.00000000000E+00 0. -1.
<mgrwt>
<rscale>  1 0.30000000E+03</rscale>
<asrwt>0</asrwt>
<pdfrwt beam="1">  1       21 0.13432725E-01 0.30000000E+03</pdfrwt>
<pdfrwt beam="2">0</pdfrwt>
<totfact> 0.50452432E+03</totfact>
</mgrwt>
</event>
<event>
 6    1  0.1273846E-001  0.3000000E+03  0.7818608E-02  0.1093470E+00
         21   -1    0    0  501  502  0.00000000000E+00  0.00000000000E+00  0.42298355183E+01  0.42298355183E+01  0.00000000000E+00 0. -1.
         13   -1    0    0    0    0 -0.00000000000E+00 -0.00000000000E+00 -0.10000000000E+04  0.10000000000E+04  0.00000000000E+00 0.  1.
    9000005    2    1    2  501    0 -0.39239192304E+02 -0.64126551391E+01 -0.89514361850E+03  0.89603307902E+03  0.35134903911E+01 0.  0.
         13    1    3    3    0    0 -0.18592203735E+02 -0.20352036305E+01 -0.38821145476E+03  0.38866173686E+03  0.00000000000E+00 0.  1.
          3    1    3    3  501    0 -0.20646988569E+02 -0.43774515085E+01 -0.50693216374E+03  0.50737134217E+03  0.00000000000E+00 0.  1.
         -3    1    1    2    0  502  0.39239192304E+02  0.64126551391E+01 -0.10062654599E+03  0.10819675649E+03  0.00000000000E+00 0. -1.
<mgrwt>
<rscale>  1 0.30000000E+03</rscale>
<asrwt>0</asrwt>
<pdfrwt beam="1">  1       21 0.15381253E-01 0.30000000E+03</pdfrwt>
<pdfrwt beam="2">0</pdfrwt>
<totfact> 0.39308222E+03</totfact>
</mgrwt>
</event>
<event>
 6    1  0.1273846E-001  0.3000000E+03  0.7818608E-02  0.1093470E+00
         21   -1    0    0  501  502  0.00000000000E+00  0.00000000000E+00  0.95037236730E+01  0.95037236730E+01  0.00000000000E+00 0. -1.
         13   -1    0    0    0    0 -0.00000000000E+00 -0.00000000000E+00 -0.10000000000E+04  0.10000000000E+04  0.00000000000E+00 0.  1.
    9000005    2    1    2  501    0  0.62158883890E+02 -0.58613904878E+02 -0.25286304964E+03  0.26693918520E+03  0.41821080978E+01 0.  0.
         13    1    3    3    0    0  0.38002221846E+02 -0.38381329224E+02 -0.15719348625E+03  0.16621398081E+03  0.00000000000E+00 0.  1.
          3    1    3    3  501    0  0.24156662044E+02 -0.20232575655E+02 -0.95669563396E+02  0.10072520439E+03  0.00000000000E+00 0.  1.
         -1    1    1    2    0  502 -0.62158883890E+02  0.58613904878E+02 -0.73763322668E+03  0.74256453848E+03  0.00000000000E+00 0. -1.
<mgrwt>
<rscale>  1 0.30000000E+03</rscale>
<asrwt>0</asrwt>
<pdfrwt beam="1">  1       21 0.34559068E-01 0.30000000E+03</pdfrwt>
<pdfrwt beam="2">0</pdfrwt>
<totfact> 0.81668543E+02</totfact>
</mgrwt>
</event>
<event>
 6    1  0.1273846E-001  0.3000000E+03  0.7818608E-02  0.1093470E+00
         21   -1    0    0  501  502  0.00000000000E+00  0.00000000000E+00  0.13677161976E+01  0.13677161976E+01  0.00000000000E+00 0. -1.
         13   -1    0    0    0    0 -0.00000000000E+00 -0.00000000000E+00 -0.10000000000E+04  0.10000000000E+04  0.00000000000E+00 0.  1.
    9000005    2    1    2  501    0 -0.14962068801E+02  0.27549758139E+02 -0.76400475806E+03  0.76465496092E+03  0.33296007427E+01 0.  0.
         13    1    3    3    0    0 -0.90339581551E+01  0.19585849801E+02 -0.50746592715E+03  0.50792409387E+03  0.00000000000E+00 0.  1.
          1    1    3    3  501    0 -0.59281106464E+01  0.79639083375E+01 -0.25653883090E+03  0.25673086704E+03  0.00000000000E+00 0.  1.
         -3    1    1    2    0  502  0.14962068801E+02 -0.27549758139E+02 -0.23462752574E+03  0.23671275528E+03  0.00000000000E+00 0. -1.
<mgrwt>
<rscale>  1 0.30000000E+03</rscale>
<asrwt>0</asrwt>
<pdfrwt beam="1">  1       21 0.49735239E-02 0.30000000E+03</pdfrwt>
<pdfrwt beam="2">0</pdfrwt>
<totfact> 0.29066512E+04</totfact>
</mgrwt>
</event>
<event>
 6    1  0.1273846E-001  0.3000000E+03  0.7818608E-02  0.1093470E+00
         21   -1    0    0  501  502  0.00000000000E+00  0.00000000000E+00  0.18662935011E+01  0.18662935011E+01  0.00000000000E+00 0. -1.
         13   -1    0    0    0    0 -0.00000000000E+00 -0.00000000000E+00 -0.10000000000E+04  0.10000000000E+04  0.00000000000E+00 0.  1.
    9000005    2    1    2  501    0  0.33933288357E+02  0.43748357443E+01 -0.19528841879E+03  0.19829229987E+03  0.34150295921E+01 0.  0.
         13    1    3    3    0    0  0.83325031183E+01  0.15185211311E+01 -0.40643129286E+02  0.41516267568E+02  0.00000000000E+00 0.  1.
          3    1    3    3  501    0  0.25600785238E+02  0.28563146132E+01 -0.15464528951E+03  0.15677603230E+03  0.00000000000E+00 0.  1.
         -3    1    1    2    0  502 -0.33933288357E+02 -0.43748357443E+01 -0.80284528770E+03  0.80357399363E+03  0.00000000000E+00 0. -1.
<mgrwt>
<rscale>  1 0.30000000E+03</rscale>
<asrwt>0</asrwt>
<pdfrwt beam="1">  1       21 0.67865361E-02 0.30000000E+03</pdfrwt>
<pdfrwt beam="2">0</pdfrwt>
<totfact> 0.17027694E+04</totfact>
</mgrwt>
</event>
<event>
 6    1  0.1273846E-001  0.3000000E+03  0.7818608E-02  0.1093470E+00
         21   -1    0    0  501  502  0.00000000000E+00  0.00000000000E+00  0.16936107666E+01  0.16936107666E+01  0.00000000000E+00 0. -1.
         13   -1    0    0    0    0 -0.00000000000E+00 -0.00000000000E+00 -0.10000000000E+04  0.10000000000E+04  0.00000000000E+00 0.  1.
    9000005    2    1    2  501    0  0.39128954621E+02 -0.48930294736E+01 -0.63944742159E+03  0.64067453166E+03  0.39791583743E+01 0.  0.
         13    1    3    3    0    0  0.32350192675E+02 -0.25087584502E+01 -0.52194510460E+03  0.52295269485E+03  0.00000000000E+00 0.  1.
          1    1    3    3  501    0  0.67787619453E+01 -0.23842710234E+01 -0.11750231700E+03  0.11772183681E+03  0.00000000000E+00 0.  1.
         -3    1    1    2    0  502 -0.39128954621E+02  0.48930294736E+01 -0.35885896764E+03  0.36101907911E+03  0.00000000000E+00 0. -1.
<mgrwt>
<rscale>  1 0.30000000E+03</rscale>
<asrwt>0</asrwt>
<pdfrwt beam="1">  1       21 0.61585976E-02 0.30000000E+03</pdfrwt>
<pdfrwt beam="2">0</pdfrwt>
<totfact> 0.20144065E+04</totfact>
</mgrwt>
</event>
<event>
 6    1  0.1273846E-001  0.3000000E+03  0.7818608E-02  0.1093470E+00
         21   -1    0    0  501  502  0.00000000000E+00  0.00000000000E+00  0.17995857526E+01  0.17995857526E+01  0.00000000000E+00 0. -1.
         13   -1    0    0    0    0 -0.00000000000E+00 -0.00000000000E+00 -0.10000000000E+04  0.10000000000E+04  0.00000000000E+00 0.  1.
    9000005    2    1    2  501    0 -0.18292546194E+02 -0.28319782574E+02 -0.80059438544E+03  0.80133819308E+03  0.74096126129E+01 0.  0.
         13    1    3    3    0    0 -0.14684777192E+02 -0.24019093785E+02 -0.59295114448E+03  0.59361908602E+03  0.00000000000E+00 0.  1.
          1    1    3    3  501    0 -0.36077690017E+01 -0.43006887893E+01 -0.20764324096E+03  0.20771910706E+03  0.00000000000E+00 0.  1.
         -1    1    1    2    0  502  0.18292546194E+02  0.28319782574E+02 -0.19760602880E+03  0.20046139267E+03  0.00000000000E+00 0. -1.
<mgrwt>
<rscale>  1 0.30000000E+03</rscale>
<asrwt>0</asrwt>
<pdfrwt beam="1">  1       21 0.65439620E-02 0.30000000E+03</pdfrwt>
<pdfrwt beam="2">0</pdfrwt>
<totfact> 0.18137091E+04</totfact>
</mgrwt>
</event>
<event>
 6    1  0.1273846E-001  0.3000000E+03  0.7818608E-02  0.1093470E+00
         21   -1    0    0  501  502  0.00000000000E+00  0.00000000000E+00  0.19274704847E+01  0.19274704847E+01  0.00000000000E+00 0. -1.
         13   -1    0    0    0    0 -0.00000000000E+00 -0.00000000000E+00 -0.10000000000E+04  0.10000000000E+04  0.00000000000E+00 0.  1.
    9000005    2    1    2  501    0 -0.71480223452E+01 -0.36959619351E+02 -0.75629339986E+03  0.75723530628E+03  0.29145702912E+01 0.  0.
         13    1    3    3    0    0 -0.51158268899E+01 -0.18830349350E+02 -0.38757946192E+03  0.38807034549E+03  0.00000000000E+00 0.  1.
          3    1    3    3  501    0 -0.20321954554E+01 -0.18129270001E+02 -0.36871393794E+03  0.36916496079E+03  0.00000000000E+00 0.  1.
         -1    1    1    2    0  502  0.71480223452E+01  0.36959619351E+02 -0.24177912966E+03  0.24469216421E+03  0.00000000000E+00 0. -1.
<mgrwt>
<rscale>  1 0.30000000E+03</rscale>
<asrwt>0</asrwt>
<pdfrwt beam="1">  1       21 0.70089984E-02 0.30000000E+03</pdfrwt>
<pdfrwt beam="2">0</pdfrwt>
<totfact> 0.16099251E+04</totfact>
</mgrwt>
</event>
<event>
 6    1  0.1273846E-001  0.3000000E+03  0.7818608E-02  0.1093470E+00
         21   -1    0    0  501  502  0.00000000000E+00  0.00000000000E+00  0.26180344648E+01  0.26180344648E+01  0.00000000000E+00 0. -1.
         13   -1    0    0    0    0 -0.00000000000E+00 -0.00000000000E+00 -0.10000000000E+04  0.10000000000E+04  0.00000000000E+00 0.  1.
    9000005    2    1    2  501    0  0.41078844621E+02 -0.16427423761E+02 -0.75013452426E+03  0.75144353548E+03  0.28724188053E+01 0.  0.
         13    1    3    3    0    0  0.22126980533E+02 -0.10198731805E+02 -0.40077319088E+03  0.40151309807E+03  0.00000000000E+00 0.  1.
          3    1    3    3  501    0  0.18951864089E+02 -0.62286919563E+01 -0.34936133338E+03  0.34993043740E+03  0.00000000000E+00 0.  1.
         -1    1    1    2    0  502 -0.41078844621E+02  0.16427423761E+02 -0.24724744127E+03  0.25117449899E+03  0.00000000000E+00 0. -1.
<mgrwt>
<rscale>  1 0.30000000E+03</rscale>
<asrwt>0</asrwt>
<pdfrwt beam="1">  1       21 0.95201454E-02 0.30000000E+03</pdfrwt>
<pdfrwt beam="2">0</pdfrwt>
<totfact> 0.93922112E+03</totfact>
</mgrwt>
</event>
<event>
 6    1  0.1273846E-001  0.3000000E+03  0.7818608E-02  0.1093470E+00
         21   -1    0    0  501  502  0.00000000000E+00  0.00000000000E+00  0.11999985014E+01  0.11999985014E+01  0.00000000000E+00 0. -1.
         13   -1    0    0    0    0 -0.00000000000E+00 -0.00000000000E+00 -0.10000000000E+04  0.10000000000E+04  0.00000000000E+00 0.  1.
    9000005    2    1    2  501    0  0.28881109298E+02  0.18829222506E+02 -0.53390995047E+03  0.53503327120E+03  0.34796536157E+01 0.  0.
         13    1    3    3    0    0  0.44841315025E+01  0.42579686389E+01 -0.10708171453E+03  0.10726011057E+03  0.00000000000E+00 0.  1.
          3    1    3    3  501    0  0.24396977795E+02  0.14571253867E+02 -0.42682823594E+03  0.42777316064E+03  0.00000000000E+00 0.  1.
         -1    1    1    2    0  502 -0.28881109298E+02 -0.18829222506E+02 -0.46489005103E+03  0.46616672730E+03  0.00000000000E+00 0. -1.
<mgrwt>
<rscale>  1 0.30000000E+03</rscale>
<asrwt>0</asrwt>
<pdfrwt beam="1">  1       21 0.43636401E-02 0.30000000E+03</pdfrwt>
<pdfrwt beam="2">0</pdfrwt>
<totfact> 0.36302972E+04</totfact>
</mgrwt>
</event>
<event>
 6    1  0.1273846E-001  0.3000000E+03  0.7818608E-02  0.1093470E+00
         21   -1    0    0  501  502  0.00000000000E+00  0.00000000000E+00  0.36717052073E+01  0.36717052073E+01  0.00000000000E+00 0. -1.
         13   -1    0    0    0    0 -0.00000000000E+00 -0.00000000000E+00 -0.10000000000E+04  0.10000000000E+04  0.00000000000E+00 0.  1.
    9000005    2    1    2  501    0  0.41003726103E+02 -0.28838254724E+02 -0.21790301512E+03  0.22363397117E+03  0.41807382825E+01 0.  0.
         13    1    3    3    0    0  0.46858125040E+00 -0.52369844688E+00 -0.58799519677E+01  0.59217956393E+01  0.00000000000E+00 0.  1.
          3    1    3    3  501    0  0.40535144853E+02 -0.28314556278E+02 -0.21202306315E+03  0.21771217553E+03  0.00000000000E+00 0.  1.
         -3    1    1    2    0  502 -0.41003726103E+02  0.28838254724E+02 -0.77842527967E+03  0.78003773404E+03  0.00000000000E+00 0. -1.
<mgrwt>
<rscale>  1 0.30000000E+03</rscale>
<asrwt>0</asrwt>
<pdfrwt beam="1">  1       21 0.13351683E-01 0.30000000E+03</pdfrwt>
<pdfrwt beam="2">0</pdfrwt>
<totfact> 0.51014334E+03</totfact>
</mgrwt>
</event>
<event>
 6    1  0.1273846E-001  0.3000000E+03  0.7818608E-02  0.1093470E+00
         21   -1    0    0  501  502  0.00000000000E+00  0.00000000000E+00  0.14058475572E+01  0.14058475572E+01  0.00000000000E+00 0. -1.
         13   -1    0    0    0    0 -0.00000000000E+00 -0.00000000000E+00 -0.10000000000E+04  0.10000000000E+04  0.00000000000E+00 0.  1.
    9000005    2    1    2  501    0  0.35348589852E+02 -0.43801712100E+00 -0.66153716889E+03  0.66250007183E+03  0.50204263281E+01 0.  0.
         13    1    3    3    0    0  0.15060897618E+02  0.22947933510E+01 -0.28077388739E+03  0.28118689969E+03  0.00000000000E+00 0.  1.
          3    1    3    3  501    0  0.20287692234E+02 -0.27328104720E+01 -0.38076328150E+03  0.38131317214E+03  0.00000000000E+00 0.  1.
         -1    1    1    2    0  502 -0.35348589852E+02  0.43801712100E+00 -0.33705698355E+03  0.33890577573E+03  0.00000000000E+00 0. -1.
<mgrwt>
<rscale>  1 0.30000000E+03</rscale>
<asrwt>0</asrwt>
<pdfrwt beam="1">  1       21 0.51121837E-02 0.30000000E+03</pdfrwt>
<pdfrwt beam="2">0</pdfrwt>
<totfact> 0.27734855E+04</totfact>
</mgrwt>
</event>
<event>
 6    1  0.1273846E-001  0.3000000E+03  0.7818608E-02  0.1093470E+00
         21   -1    0    0  501  502  0.00000000000E+00  0.00000000000E+00  0.20367719738E+01  0.20367719738E+01  0.00000000000E+00 0. -1.
         13   -1    0    0    0    0 -0.00000000000E+00 -0.00000000000E+00 -0.10000000000E+04  0.10000000000E+04  0.00000000000E+00 0.  1.
    9000005    2    1    2  501    0 -0.13033150780E+02 -0.38217165215E+02 -0.71941067437E+03  0.72057284909E+03  0.65648848438E+01 0.  0.
         13    1    3    3    0    0 -0.23699353972E+01 -0.78771145561E+01 -0.19854150838E+03  0.19871184181E+03  0.00000000000E+00 0.  1.
          3    1    3    3  501    0 -0.10663215383E+02 -0.30340050659E+02 -0.52086916599E+03  0.52186100727E+03  0.00000000000E+00 0.  1.
         -1    1    1    2    0  502  0.13033150780E+02  0.38217165215E+02 -0.27855255366E+03  0.28146392289E+03  0.00000000000E+00 0. -1.
<mgrwt>
<rscale>  1 0.30000000E+03</rscale>
<asrwt>0</asrwt>
<pdfrwt beam="1">  1       21 0.74064592E-02 0.30000000E+03</pdfrwt>
<pdfrwt beam="2">0</pdfrwt>
<totfact> 0.14622155E+04</totfact>
</mgrwt>
</event>
<event>
 6    1  0.1273846E-001  0.3000000E+03  0.7818608E-02  0.1093470E+00
         21   -1    0    0  501  502  0.00000000000E+00  0.00000000000E+00  0.12483378901E+01  0.12483378901E+01  0.00000000000E+00 0. -1.
         13   -1    0    0    0    0 -0.00000000000E+00 -0.00000000000E+00 -0.10000000000E+04  0.10000000000E+04  0.00000000000E+00 0.  1.
    9000005    2    1    2  501    0 -0.12405919116E+01  0.35190203853E+02 -0.52090526575E+03  0.52210632551E+03  0.35818617764E+01 0.  0.
         13    1    3    3    0    0  0.70166036141E+00  0.14390087940E+02 -0.19398436539E+03  0.19451863914E+03  0.00000000000E+00 0.  1.
          3    1    3    3  501    0 -0.19422522731E+01  0.20800115913E+02 -0.32692090037E+03  0.32758768637E+03  0.00000000000E+00 0.  1.
         -3    1    1    2    0  502  0.12405919116E+01 -0.35190203853E+02 -0.47784639636E+03  0.47914201238E+03  0.00000000000E+00 0. -1.
<mgrwt>
<rscale>  1 0.30000000E+03</rscale>
<asrwt>0</asrwt>
<pdfrwt beam="1">  1       21 0.45394201E-02 0.30000000E+03</pdfrwt>
<pdfrwt beam="2">0</pdfrwt>
<totfact> 0.33951779E+04</totfact>
</mgrwt>
</event>
<event>
 6    1  0.1273846E-001  0.3000000E+03  0.7818608E-02  0.1093470E+00
         21   -1    0    0  501  502  0.00000000000E+00  0.00000000000E+00  0.13349533889E+01  0.13349533889E+01  0.00000000000E+00 0. -1.
         13   -1    0    0    0    0 -0.00000000000E+00 -0.00000000000E+00 -0.10000000000E+04  0.10000000000E+04  0.00000000000E+00 0.  1.
    9000005    2    1    2  501    0 -0.30008515968E+02  0.16653180465E+01 -0.78314123112E+03  0.78372567198E+03  0.35294069597E+01 0.  0.
         13    1    3    3    0    0 -0.10243581183E+02 -0.10523704535E+01 -0.27751865440E+03  0.27770963610E+03  0.00000000000E+00 0.  1.
          3    1    3    3  501    0 -0.19764934785E+02  0.27176885000E+01 -0.50562257672E+03  0.50601603588E+03  0.00000000000E+00 0.  1.
         -3    1    1    2    0  502  0.30008515968E+02 -0.16653180465E+01 -0.21552381549E+03  0.21760928141E+03  0.00000000000E+00 0. -1.
<mgrwt>
<rscale>  1 0.30000000E+03</rscale>
<asrwt>0</asrwt>
<pdfrwt beam="1">  1       21 0.48543862E-02 0.30000000E+03</pdfrwt>
<pdfrwt beam="2">0</pdfrwt>
<totfact> 0.30292056E+04</totfact>
</mgrwt>
</event>
<event>
 6    1  0.1273846E-001  0.3000000E+03  0.7818608E-02  0.1093470E+00
         21   -1    0    0  501  502  0.00000000000E+00  0.00000000000E+00  0.58114332561E+01  0.58114332561E+01  0.00000000000E+00 0. -1.
         13   -1    0    0    0    0 -0.00000000000E+00 -0.00000000000E+00 -0.10000000000E+04  0.10000000000E+04  0.00000000000E+00 0.  1.
    9000005    2    1    2  501    0 -0.28787725159E+02 -0.15151910432E+02 -0.95188466087E+03  0.95244539573E+03  0.30839468095E+01 0.  0.
         13    1    3    3    0    0 -0.43001548582E+01 -0.23423343707E+01 -0.17844002747E+03  0.17850720228E+03  0.00000000000E+00 0.  1.
          1    1    3    3  501    0 -0.24487570301E+02 -0.12809576061E+02 -0.77344463340E+03  0.77393819345E+03  0.00000000000E+00 0.  1.
         -1    1    1    2    0  502  0.28787725159E+02  0.15151910432E+02 -0.42303905871E+02  0.53366037529E+02  0.00000000000E+00 0. -1.
<mgrwt>
<rscale>  1 0.30000000E+03</rscale>
<asrwt>0</asrwt>
<pdfrwt beam="1">  1       21 0.21132529E-01 0.30000000E+03</pdfrwt>
<pdfrwt beam="2">0</pdfrwt>
<totfact> 0.21592192E+03</totfact>
</mgrwt>
</event>
<event>
 6    1  0.1273846E-001  0.3000000E+03  0.7818608E-02  0.1093470E+00
         21   -1    0    0  501  502  0.00000000000E+00  0.00000000000E+00  0.17512113712E+01  0.17512113712E+01  0.00000000000E+00 0. -1.
         13   -1    0    0    0    0 -0.00000000000E+00 -0.00000000000E+00 -0.10000000000E+04  0.10000000000E+04  0.00000000000E+00 0.  1.
    9000005    2    1    2  501    0  0.11944663590E+02  0.38669551956E+02 -0.60139957822E+03  0.60284357163E+03  0.10045394128E+02 0.  0.
         13    1    3    3    0    0  0.31902198235E+00  0.15848720637E+02 -0.26192203274E+03  0.26240128611E+03  0.00000000000E+00 0.  1.
          1    1    3    3  501    0  0.11625641608E+02  0.22820831319E+02 -0.33947754548E+03  0.34044228552E+03  0.00000000000E+00 0.  1.
         -1    1    1    2    0  502 -0.11944663590E+02 -0.38669551956E+02 -0.39684921041E+03  0.39890763974E+03  0.00000000000E+00 0. -1.
<mgrwt>
<rscale>  1 0.30000000E+03</rscale>
<asrwt>0</asrwt>
<pdfrwt beam="1">  1       21 0.63680548E-02 0.30000000E+03</pdfrwt>
<pdfrwt beam="2">0</pdfrwt>
<totfact> 0.19012923E+04</totfact>
</mgrwt>
</event>
<event>
 6    1  0.1273846E-001  0.3000000E+03  0.7818608E-02  0.1093470E+00
         21   -1    0    0  501  502  0.00000000000E+00  0.00000000000E+00  0.96182503955E+00  0.96182503955E+00  0.00000000000E+00 0. -1.
         13   -1    0    0    0    0 -0.00000000000E+00 -0.00000000000E+00 -0.10000000000E+04  0.10000000000E+04  0.00000000000E+00 0.  1.
    9000005    2    1    2  501    0  0.30757251791E+02 -0.29559281865E+01 -0.52094358998E+03  0.52186978979E+03  0.33327928311E+01 0.  0.
         13    1    3    3    0    0  0.21230441578E+02 -0.25836337855E+01 -0.38352937545E+03  0.38412522522E+03  0.00000000000E+00 0.  1.
          1    1    3    3  501    0  0.95268102129E+01 -0.37229440103E+00 -0.13741421453E+03  0.13774456458E+03  0.00000000000E+00 0.  1.
         -1    1    1    2    0  502 -0.30757251791E+02  0.29559281865E+01 -0.47809458498E+03  0.47909203525E+03  0.00000000000E+00 0. -1.
<mgrwt>
<rscale>  1 0.30000000E+03</rscale>
<asrwt>0</asrwt>
<pdfrwt beam="1">  1       21 0.34975530E-02 0.30000000E+03</pdfrwt>
<pdfrwt beam="2">0</pdfrwt>
<totfact> 0.52678462E+04</totfact>
</mgrwt>
</event>
<event>
 6    1  0.1273846E-001  0.3000000E+03  0.7818608E-02  0.1093470E+00
         21   -1    0    0  501  502  0.00000000000E+00  0.00000000000E+00  0.17829235408E+01  0.17829235408E+01  0.00000000000E+00 0. -1.
         13   -1    0    0    0    0 -0.00000000000E+00 -0.00000000000E+00 -0.10000000000E+04  0.10000000000E+04  0.00000000000E+00 0.  1.
    9000005    2    1    2  501    0  0.37011501277E+02 -0.17564124893E+02 -0.59389223844E+03  0.59538788869E+03  0.10019850915E+02 0.  0.
         13    1    3    3    0    0  0.37258509227E+02 -0.17994751389E+02 -0.59145985599E+03  0.59290536246E+03  0.00000000000E+00 0.  1.
          3    1    3    3  501    0 -0.24700794973E+00  0.43062649639E+00 -0.24323824509E+01  0.24825262323E+01  0.00000000000E+00 0.  1.
         -3    1    1    2    0  502 -0.37011501277E+02  0.17564124893E+02 -0.40432483802E+03  0.40639503485E+03  0.00000000000E+00 0. -1.
<mgrwt>
<rscale>  1 0.30000000E+03</rscale>
<asrwt>0</asrwt>
<pdfrwt beam="1">  1       21 0.64833720E-02 0.30000000E+03</pdfrwt>
<pdfrwt beam="2">0</pdfrwt>
<totfact> 0.18431599E+04</totfact>
</mgrwt>
</event>
<event>
 6    1  0.1273846E-001  0.3000000E+03  0.7818608E-02  0.1093470E+00
         21   -1    0    0  501  502  0.00000000000E+00  0.00000000000E+00  0.10744184176E+01  0.10744184176E+01  0.00000000000E+00 0. -1.
         13   -1    0    0    0    0 -0.00000000000E+00 -0.00000000000E+00 -0.10000000000E+04  0.10000000000E+04  0.00000000000E+00 0.  1.
    9000005    2    1    2  501    0  0.13064039770E+02 -0.27232670218E+02 -0.69201889023E+03  0.69268504659E+03  0.31846295313E+01 0.  0.
         13    1    3    3    0    0  0.11543420376E+02 -0.23553810630E+02 -0.62234834882E+03  0.62290087480E+03  0.00000000000E+00 0.  1.
          3    1    3    3  501    0  0.15206193935E+01 -0.36788595882E+01 -0.69670541416E+02  0.69784171790E+02  0.00000000000E+00 0.  1.
         -1    1    1    2    0  502 -0.13064039770E+02  0.27232670218E+02 -0.30690669135E+03  0.30838937183E+03  0.00000000000E+00 0. -1.
<mgrwt>
<rscale>  1 0.30000000E+03</rscale>
<asrwt>0</asrwt>
<pdfrwt beam="1">  1       21 0.39069843E-02 0.30000000E+03</pdfrwt>
<pdfrwt beam="2">0</pdfrwt>
<totfact> 0.43745811E+04</totfact>
</mgrwt>
</event>
<event>
 6    1  0.1273846E-001  0.3000000E+03  0.7818608E-02  0.1093470E+00
         21   -1    0    0  501  502  0.00000000000E+00  0.00000000000E+00  0.44044248399E+01  0.44044248399E+01  0.00000000000E+00 0. -1.
         13   -1    0    0    0    0 -0.00000000000E+00 -0.00000000000E+00 -0.10000000000E+04  0.10000000000E+04  0.00000000000E+00 0.  1.
    9000005    2    1    2  501    0  0.59647422179E+02 -0.19834574968E+02 -0.65811037148E+03  0.66111520561E+03  0.35817177583E+01 0.  0.
         13    1    3    3    0    0  0.14475933481E+02 -0.54485130661E+01 -0.17727486072E+03  0.17794834977E+03  0.00000000000E+00 0.  1.
          1    1    3    3  501    0  0.45171488698E+02 -0.14386061902E+02 -0.48083551076E+03  0.48316685583E+03  0.00000000000E+00 0.  1.
         -3    1    1    2    0  502 -0.59647422179E+02  0.19834574968E+02 -0.33748520368E+03  0.34328921923E+03  0.00000000000E+00 0. -1.
<mgrwt>
<rscale>  1 0.30000000E+03</rscale>
<asrwt>0</asrwt>
<pdfrwt beam="1">  1       21 0.16016124E-01 0.30000000E+03</pdfrwt>
<pdfrwt beam="2">0</pdfrwt>
<totfact> 0.36458130E+03</totfact>
</mgrwt>
</event>
<event>
 6    1  0.1273846E-001  0.3000000E+03  0.7818608E-02  0.1093470E+00
         21   -1    0    0  501  502  0.00000000000E+00  0.00000000000E+00  0.20104994505E+01  0.20104994505E+01  0.00000000000E+00 0. -1.
         13   -1    0    0    0    0 -0.00000000000E+00 -0.00000000000E+00 -0.10000000000E+04  0.10000000000E+04  0.00000000000E+00 0.  1.
    9000005    2    1    2  501    0 -0.37071780150E+02  0.18779464444E+02 -0.68539883018E+03  0.68666955321E+03  0.40661698533E+01 0.  0.
         13    1    3    3    0    0 -0.29904150047E+02  0.13997541251E+02 -0.56359247039E+03  0.56455882070E+03  0.00000000000E+00 0.  1.
          1    1    3    3  501    0 -0.71676301038E+01  0.47819231922E+01 -0.12180635979E+03  0.12211073252E+03  0.00000000000E+00 0.  1.
         -1    1    1    2    0  502  0.37071780150E+02 -0.18779464444E+02 -0.31259067037E+03  0.31534094624E+03  0.00000000000E+00 0. -1.
<mgrwt>
<rscale>  1 0.30000000E+03</rscale>
<asrwt>0</asrwt>
<pdfrwt beam="1">  1       21 0.73109225E-02 0.30000000E+03</pdfrwt>
<pdfrwt beam="2">0</pdfrwt>
<totfact> 0.14957814E+04</totfact>
</mgrwt>
</event>
<event>
 6    1  0.1273846E-001  0.3000000E+03  0.7818608E-02  0.1093470E+00
         21   -1    0    0  501  502  0.00000000000E+00  0.00000000000E+00  0.21579722162E+01  0.21579722162E+01  0.00000000000E+00 0. -1.
         13   -1    0    0    0    0 -0.00000000000E+00 -0.00000000000E+00 -0.10000000000E+04  0.10000000000E+04  0.00000000000E+00 0.  1.
    9000005    2    1    2  501    0 -0.38654738398E+02  0.12144065009E+02 -0.74330526944E+03  0.74441657379E+03  0.34124239621E+01 0.  0.
         13    1    3    3    0    0 -0.21424475911E+02  0.84304606361E+01 -0.41218560387E+03  0.41282811540E+03  0.00000000000E+00 0.  1.
          3    1    3    3  501    0 -0.17230262487E+02  0.37136043729E+01 -0.33111966557E+03  0.33158845838E+03  0.00000000000E+00 0.  1.
         -3    1    1    2    0  502  0.38654738398E+02 -0.12144065009E+02 -0.25453675834E+03  0.25774139843E+03  0.00000000000E+00 0. -1.
<mgrwt>
<rscale>  1 0.30000000E+03</rscale>
<asrwt>0</asrwt>
<pdfrwt beam="1">  1       21 0.78471882E-02 0.30000000E+03</pdfrwt>
<pdfrwt beam="2">0</pdfrwt>
<totfact> 0.13213765E+04</totfact>
</mgrwt>
</event>
<event>
 6    1  0.1273846E-001  0.3000000E+03  0.7818608E-02  0.1093470E+00
         21   -1    0    0  501  502  0.00000000000E+00  0.00000000000E+00  0.98626748775E+00  0.98626748775E+00  0.00000000000E+00 0. -1.
         13   -1    0    0    0    0 -0.00000000000E+00 -0.00000000000E+00 -0.10000000000E+04  0.10000000000E+04  0.00000000000E+00 0.  1.
    9000005    2    1    2  501    0  0.18099610603E+02 -0.24724193021E+02 -0.60339005437E+03  0.60417777926E+03  0.35142014462E+01 0.  0.
         13    1    3    3    0    0  0.13378074403E+02 -0.16271587134E+02 -0.43472627207E+03  0.43523633701E+03  0.00000000000E+00 0.  1.
          3    1    3    3  501    0  0.47215362004E+01 -0.84526058868E+01 -0.16866378230E+03  0.16894144225E+03  0.00000000000E+00 0.  1.
         -3    1    1    2    0  502 -0.18099610603E+02  0.24724193021E+02 -0.39562367814E+03  0.39680848823E+03  0.00000000000E+00 0. -1.
<mgrwt>
<rscale>  1 0.30000000E+03</rscale>
<asrwt>0</asrwt>
<pdfrwt beam="1">  1       21 0.35864348E-02 0.30000000E+03</pdfrwt>
<pdfrwt beam="2">0</pdfrwt>
<totfact> 0.50509050E+04</totfact>
</mgrwt>
</event>
<event>
 6    1  0.1273846E-001  0.3000000E+03  0.7818608E-02  0.1093470E+00
         21   -1    0    0  501  502  0.00000000000E+00  0.00000000000E+00  0.16575705835E+01  0.16575705835E+01  0.00000000000E+00 0. -1.
         13   -1    0    0    0    0 -0.00000000000E+00 -0.00000000000E+00 -0.10000000000E+04  0.10000000000E+04  0.00000000000E+00 0.  1.
    9000005    2    1    2  501    0  0.38939053049E+02  0.46811306660E+01 -0.63120308337E+03  0.63242937251E+03  0.33787455874E+01 0.  0.
         13    1    3    3    0    0  0.84477229203E+01  0.18294131124E+01 -0.15818705304E+03  0.15842302397E+03  0.00000000000E+00 0.  1.
          1    1    3    3  501    0  0.30491330129E+02  0.28517175536E+01 -0.47301603033E+03  0.47400634854E+03  0.00000000000E+00 0.  1.
         -1    1    1    2    0  502 -0.38939053049E+02 -0.46811306660E+01 -0.36713934605E+03  0.36922819807E+03  0.00000000000E+00 0. -1.
<mgrwt>
<rscale>  1 0.30000000E+03</rscale>
<asrwt>0</asrwt>
<pdfrwt beam="1">  1       21 0.60275421E-02 0.30000000E+03</pdfrwt>
<pdfrwt beam="2">0</pdfrwt>
<totfact> 0.20905869E+04</totfact>
</mgrwt>
</event>
<event>
 6    1  0.1273846E-001  0.3000000E+03  0.7818608E-02  0.1093470E+00
         21   -1    0    0  501  502  0.00000000000E+00  0.00000000000E+00  0.11660784445E+01  0.11660784445E+01  0.00000000000E+00 0. -1.
         13   -1    0    0    0    0 -0.00000000000E+00 -0.00000000000E+00 -0.10000000000E+04  0.10000000000E+04  0.00000000000E+00 0.  1.
    9000005    2    1    2  501    0 -0.12078694686E+02  0.28602540214E+02 -0.70568356547E+03  0.70637609991E+03  0.37282403200E+01 0.  0.
         13    1    3    3    0    0 -0.73345774761E+01  0.15478889609E+02 -0.34997956743E+03  0.35039847269E+03  0.00000000000E+00 0.  1.
          3    1    3    3  501    0 -0.47441172094E+01  0.13123650605E+02 -0.35570399804E+03  0.35597762722E+03  0.00000000000E+00 0.  1.
         -3    1    1    2    0  502  0.12078694686E+02 -0.28602540214E+02 -0.29315035608E+03  0.29478997854E+03  0.00000000000E+00 0. -1.
<mgrwt>
<rscale>  1 0.30000000E+03</rscale>
<asrwt>0</asrwt>
<pdfrwt beam="1">  1       21 0.42402942E-02 0.30000000E+03</pdfrwt>
<pdfrwt beam="2">0</pdfrwt>
<totfact> 0.38106882E+04</totfact>
</mgrwt>
</event>
<event>
 6    1  0.1273846E-001  0.3000000E+03  0.7818608E-02  0.1093470E+00
         21   -1    0    0  501  502  0.00000000000E+00  0.00000000000E+00  0.36667431121E+01  0.36667431121E+01  0.00000000000E+00 0. -1.
         13   -1    0    0    0    0 -0.00000000000E+00 -0.00000000000E+00 -0.10000000000E+04  0.10000000000E+04  0.00000000000E+00 0.  1.
    9000005    2    1    2  501    0  0.51898662456E+02  0.10769469473E+02 -0.74005552509E+03  0.74196514118E+03  0.45428928305E+01 0.  0.
         13    1    3    3    0    0  0.41656060480E+02  0.86235760871E+01 -0.56703605635E+03  0.56862947747E+03  0.00000000000E+00 0.  1.
          3    1    3    3  501    0  0.10242601976E+02  0.21458933863E+01 -0.17301946874E+03  0.17333566372E+03  0.00000000000E+00 0.  1.
         -1    1    1    2    0  502 -0.51898662456E+02 -0.10769469473E+02 -0.25627773180E+03  0.26170160193E+03  0.00000000000E+00 0. -1.
<mgrwt>
<rscale>  1 0.30000000E+03</rscale>
<asrwt>0</asrwt>
<pdfrwt beam="1">  1       21 0.13333639E-01 0.30000000E+03</pdfrwt>
<pdfrwt beam="2">0</pdfrwt>
<totfact> 0.51140722E+03</totfact>
</mgrwt>
</event>
<event>
 6    1  0.1273846E-001  0.3000000E+03  0.7818608E-02  0.1093470E+00
         21   -1    0    0  501  502  0.00000000000E+00  0.00000000000E+00  0.59102492635E+01  0.59102492635E+01  0.00000000000E+00 0. -1.
         13   -1    0    0    0    0 -0.00000000000E+00 -0.00000000000E+00 -0.10000000000E+04  0.10000000000E+04  0.00000000000E+00 0.  1.
    9000005    2    1    2  501    0  0.50725779435E+02 -0.37970245450E+02 -0.78166853955E+03  0.78424018994E+03  0.34821767454E+01 0.  0.
         13    1    3    3    0    0  0.26608510477E+02 -0.20966769984E+02 -0.43649331595E+03  0.43780593091E+03  0.00000000000E+00 0.  1.
          3    1    3    3  501    0  0.24117268958E+02 -0.17003475466E+02 -0.34517522361E+03  0.34643425903E+03  0.00000000000E+00 0.  1.
         -1    1    1    2    0  502 -0.50725779435E+02  0.37970245450E+02 -0.21242121118E+03  0.22167005932E+03  0.00000000000E+00 0. -1.
<mgrwt>
<rscale>  1 0.30000000E+03</rscale>
<asrwt>0</asrwt>
<pdfrwt beam="1">  1       21 0.21491861E-01 0.30000000E+03</pdfrwt>
<pdfrwt beam="2">0</pdfrwt>
<totfact> 0.20904588E+03</totfact>
</mgrwt>
</event>
<event>
 6    1  0.1273846E-001  0.3000000E+03  0.7818608E-02  0.1093470E+00
         21   -1    0    0  501  502  0.00000000000E+00  0.00000000000E+00  0.17931168605E+01  0.17931168605E+01  0.00000000000E+00 0. -1.
         13   -1    0    0    0    0 -0.00000000000E+00 -0.00000000000E+00 -0.10000000000E+04  0.10000000000E+04  0.00000000000E+00 0.  1.
    9000005    2    1    2  501    0  0.20796574258E+01 -0.34795434929E+02 -0.78153542371E+03  0.78233567543E+03  0.60368264736E+01 0.  0.
         13    1    3    3    0    0  0.32524606936E+01 -0.25867047561E+02 -0.62224594808E+03  0.62279186134E+03  0.00000000000E+00 0.  1.
          1    1    3    3  501    0 -0.11728032679E+01 -0.89283873684E+01 -0.15928947563E+03  0.15954381409E+03  0.00000000000E+00 0.  1.
         -1    1    1    2    0  502 -0.20796574258E+01  0.34795434929E+02 -0.21667145943E+03  0.21945744143E+03  0.00000000000E+00 0. -1.
<mgrwt>
<rscale>  1 0.30000000E+03</rscale>
<asrwt>0</asrwt>
<pdfrwt beam="1">  1       21 0.65204387E-02 0.30000000E+03</pdfrwt>
<pdfrwt beam="2">0</pdfrwt>
<totfact> 0.18250562E+04</totfact>
</mgrwt>
</event>
<event>
 6    1  0.1273846E-001  0.3000000E+03  0.7818608E-02  0.1093470E+00
         21   -1    0    0  501  502  0.00000000000E+00  0.00000000000E+00  0.17939539000E+01  0.17939539000E+01  0.00000000000E+00 0. -1.
         13   -1    0    0    0    0 -0.00000000000E+00 -0.00000000000E+00 -0.10000000000E+04  0.10000000000E+04  0.00000000000E+00 0.  1.
    9000005    2    1    2  501    0  0.29773558207E+02  0.18227557290E+02 -0.78186681148E+03  0.78265615923E+03  0.40303954296E+01 0.  0.
         13    1    3    3    0    0  0.18665789319E+02  0.95158899064E+01 -0.49169356405E+03  0.49213974111E+03  0.00000000000E+00 0.  1.
          1    1    3    3  501    0  0.11107768889E+02  0.87116673834E+01 -0.29017324743E+03  0.29051641813E+03  0.00000000000E+00 0.  1.
         -1    1    1    2    0  502 -0.29773558207E+02 -0.18227557290E+02 -0.21633923462E+03  0.21913779467E+03  0.00000000000E+00 0. -1.
<mgrwt>
<rscale>  1 0.30000000E+03</rscale>
<asrwt>0</asrwt>
<pdfrwt beam="1">  1       21 0.65234825E-02 0.30000000E+03</pdfrwt>
<pdfrwt beam="2">0</pdfrwt>
<totfact> 0.18235817E+04</totfact>
</mgrwt>
</event>
<event>
 6    1  0.1273846E-001  0.3000000E+03  0.7818608E-02  0.1093470E+00
         21   -1    0    0  501  502  0.00000000000E+00  0.00000000000E+00  0.38786738298E+01  0.38786738298E+01  0.00000000000E+00 0. -1.
         13   -1    0    0    0    0 -0.00000000000E+00 -0.00000000000E+00 -0.10000000000E+04  0.10000000000E+04  0.00000000000E+00 0.  1.
    9000005    2    1    2  501    0 -0.40320174872E+02 -0.69171553333E+01 -0.87643493019E+03  0.87739390430E+03  0.28832119146E+01 0.  0.
         13    1    3    3    0    0 -0.38072432921E+02 -0.63559750909E+01 -0.83890166694E+03  0.83978920888E+03  0.00000000000E+00 0.  1.
          3    1    3    3  501    0 -0.22477419503E+01 -0.56118024243E+00 -0.37533263252E+02  0.37604695418E+02  0.00000000000E+00 0.  1.
         -1    1    1    2    0  502  0.40320174872E+02  0.69171553333E+01 -0.11968639598E+03  0.12648476953E+03  0.00000000000E+00 0. -1.
<mgrwt>
<rscale>  1 0.30000000E+03</rscale>
<asrwt>0</asrwt>
<pdfrwt beam="1">  1       21 0.14104298E-01 0.30000000E+03</pdfrwt>
<pdfrwt beam="2">0</pdfrwt>
<totfact> 0.46133108E+03</totfact>
</mgrwt>
</event>
<event>
 6    1  0.1273846E-001  0.3000000E+03  0.7818608E-02  0.1093470E+00
         21   -1    0    0  501  502  0.00000000000E+00  0.00000000000E+00  0.21303318253E+01  0.21303318253E+01  0.00000000000E+00 0. -1.
         13   -1    0    0    0    0 -0.00000000000E+00 -0.00000000000E+00 -0.10000000000E+04  0.10000000000E+04  0.00000000000E+00 0.  1.
    9000005    2    1    2  501    0 -0.17310778222E+02 -0.28472954471E+02 -0.84530153537E+03  0.84596565167E+03  0.35813315710E+01 0.  0.
         13    1    3    3    0    0 -0.14414682078E+02 -0.20745532945E+02 -0.63678700988E+03  0.63728789110E+03  0.00000000000E+00 0.  1.
          1    1    3    3  501    0 -0.28960961444E+01 -0.77274215260E+01 -0.20851452549E+03  0.20867776057E+03  0.00000000000E+00 0.  1.
         -3    1    1    2    0  502  0.17310778222E+02  0.28472954471E+02 -0.15256813281E+03  0.15616468015E+03  0.00000000000E+00 0. -1.
<mgrwt>
<rscale>  1 0.30000000E+03</rscale>
<asrwt>0</asrwt>
<pdfrwt beam="1">  1       21 0.77466775E-02 0.30000000E+03</pdfrwt>
<pdfrwt beam="2">0</pdfrwt>
<totfact> 0.13515953E+04</totfact>
</mgrwt>
</event>
<event>
 6    1  0.1273846E-001  0.3000000E+03  0.7818608E-02  0.1093470E+00
         21   -1    0    0  501  502  0.00000000000E+00  0.00000000000E+00  0.12696458825E+01  0.12696458825E+01  0.00000000000E+00 0. -1.
         13   -1    0    0    0    0 -0.00000000000E+00 -0.00000000000E+00 -0.10000000000E+04  0.10000000000E+04  0.00000000000E+00 0.  1.
    9000005    2    1    2  501    0  0.21653563728E+02 -0.24577896069E+02 -0.69426752531E+03  0.69504984913E+03  0.37344717266E+01 0.  0.
         13    1    3    3    0    0  0.11777552701E+01 -0.17612758164E+01 -0.67158553794E+02  0.67191967880E+02  0.00000000000E+00 0.  1.
          3    1    3    3  501    0  0.20475808458E+02 -0.22816620253E+02 -0.62710897151E+03  0.62785788125E+03  0.00000000000E+00 0.  1.
         -1    1    1    2    0  502 -0.21653563728E+02  0.24577896069E+02 -0.30446282881E+03  0.30621979675E+03  0.00000000000E+00 0. -1.
<mgrwt>
<rscale>  1 0.30000000E+03</rscale>
<asrwt>0</asrwt>
<pdfrwt beam="1">  1       21 0.46169039E-02 0.30000000E+03</pdfrwt>
<pdfrwt beam="2">0</pdfrwt>
<totfact> 0.32989545E+04</totfact>
</mgrwt>
</event>
<event>
 6    1  0.1273846E-001  0.3000000E+03  0.7818608E-02  0.1093470E+00
         21   -1    0    0  501  502  0.00000000000E+00  0.00000000000E+00  0.10206565327E+01  0.10206565327E+01  0.00000000000E+00 0. -1.
         13   -1    0    0    0    0 -0.00000000000E+00 -0.00000000000E+00 -0.10000000000E+04  0.10000000000E+04  0.00000000000E+00 0.  1.
    9000005    2    1    2  501    0 -0.18933857158E+02 -0.25466348542E+02 -0.45861116739E+03  0.45972148642E+03  0.35519516133E+01 0.  0.
         13    1    3    3    0    0 -0.39305388321E+01 -0.60777031343E+01 -0.85530164748E+02  0.85835870665E+02  0.00000000000E+00 0.  1.
          3    1    3    3  501    0 -0.15003318326E+02 -0.19388645408E+02 -0.37308100264E+03  0.37388561575E+03  0.00000000000E+00 0.  1.
         -3    1    1    2    0  502  0.18933857158E+02  0.25466348542E+02 -0.54036817607E+03  0.54129917012E+03  0.00000000000E+00 0. -1.
<mgrwt>
<rscale>  1 0.30000000E+03</rscale>
<asrwt>0</asrwt>
<pdfrwt beam="1">  1       21 0.37114861E-02 0.30000000E+03</pdfrwt>
<pdfrwt beam="2">0</pdfrwt>
<totfact> 0.47686690E+04</totfact>
</mgrwt>
</event>
<event>
 6    1  0.1273846E-001  0.3000000E+03  0.7818608E-02  0.1093470E+00
         21   -1    0    0  501  502  0.00000000000E+00  0.00000000000E+00  0.29396182612E+01  0.29396182612E+01  0.00000000000E+00 0. -1.
         13   -1    0    0    0    0 -0.00000000000E+00 -0.00000000000E+00 -0.10000000000E+04  0.10000000000E+04  0.00000000000E+00 0.  1.
    9000005    2    1    2  501    0 -0.26377533263E+02  0.17593897508E+02 -0.90507010224E+03  0.90563837977E+03  0.48647141848E+01 0.  0.
         13    1    3    3    0    0 -0.19971154879E+02  0.11987680378E+02 -0.71150086579E+03  0.71188203625E+03  0.00000000000E+00 0.  1.
          3    1    3    3  501    0 -0.64063783840E+01  0.56062171294E+01 -0.19356923645E+03  0.19375634352E+03  0.00000000000E+00 0.  1.
         -1    1    1    2    0  502  0.26377533263E+02 -0.17593897508E+02 -0.91990279495E+02  0.97301238492E+02  0.00000000000E+00 0. -1.
<mgrwt>
<rscale>  1 0.30000000E+03</rscale>
<asrwt>0</asrwt>
<pdfrwt beam="1">  1       21 0.10689543E-01 0.30000000E+03</pdfrwt>
<pdfrwt beam="2">0</pdfrwt>
<totfact> 0.76348807E+03</totfact>
</mgrwt>
</event>
<event>
 6    1  0.1273846E-001  0.3000000E+03  0.7818608E-02  0.1093470E+00
         21   -1    0    0  501  502  0.00000000000E+00  0.00000000000E+00  0.11957342216E+01  0.11957342216E+01  0.00000000000E+00 0. -1.
         13   -1    0    0    0    0 -0.00000000000E+00 -0.00000000000E+00 -0.10000000000E+04  0.10000000000E+04  0.00000000000E+00 0.  1.
    9000005    2    1    2  501    0 -0.31646569550E+02 -0.13334249713E+02 -0.45625632731E+03  0.45756205875E+03  0.37274400808E+01 0.  0.
         13    1    3    3    0    0 -0.40758140564E+01 -0.12505592274E+01 -0.73699307829E+02  0.73822517792E+02  0.00000000000E+00 0.  1.
          1    1    3    3  501    0 -0.27570755494E+02 -0.12083690486E+02 -0.38255701949E+03  0.38373954095E+03  0.00000000000E+00 0.  1.
         -3    1    1    2    0  502  0.31646569550E+02  0.13334249713E+02 -0.54254793846E+03  0.54363367548E+03  0.00000000000E+00 0. -1.
<mgrwt>
<rscale>  1 0.30000000E+03</rscale>
<asrwt>0</asrwt>
<pdfrwt beam="1">  1       21 0.43481336E-02 0.30000000E+03</pdfrwt>
<pdfrwt beam="2">0</pdfrwt>
<totfact> 0.36522392E+04</totfact>
</mgrwt>
</event>
<event>
 6    1  0.1273846E-001  0.3000000E+03  0.7818608E-02  0.1093470E+00
         21   -1    0    0  501  502  0.00000000000E+00  0.00000000000E+00  0.16012124520E+01  0.16012124520E+01  0.00000000000E+00 0. -1.
         13   -1    0    0    0    0 -0.00000000000E+00 -0.00000000000E+00 -0.10000000000E+04  0.10000000000E+04  0.00000000000E+00 0.  1.
    9000005    2    1    2  501    0 -0.23303387486E+02 -0.23380156024E+02 -0.78145405846E+03  0.78215943192E+03  0.36403150381E+01 0.  0.
         13    1    3    3    0    0 -0.22761565580E+01 -0.10956670630E+01 -0.71304883778E+02  0.71349616857E+02  0.00000000000E+00 0.  1.
          1    1    3    3  501    0 -0.21027230928E+02 -0.22284488961E+02 -0.71014917468E+03  0.71080981506E+03  0.00000000000E+00 0.  1.
         -1    1    1    2    0  502  0.23303387486E+02  0.23380156024E+02 -0.21694472909E+03  0.21944178053E+03  0.00000000000E+00 0. -1.
<mgrwt>
<rscale>  1 0.30000000E+03</rscale>
<asrwt>0</asrwt>
<pdfrwt beam="1">  1       21 0.58226030E-02 0.30000000E+03</pdfrwt>
<pdfrwt beam="2">0</pdfrwt>
<totfact> 0.22190409E+04</totfact>
</mgrwt>
</event>
<event>
 6    1  0.1273846E-001  0.3000000E+03  0.7818608E-02  0.1093470E+00
         21   -1    0    0  501  502  0.00000000000E+00  0.00000000000E+00  0.39902369330E+01  0.39902369330E+01  0.00000000000E+00 0. -1.
         13   -1    0    0    0    0 -0.00000000000E+00 -0.00000000000E+00 -0.10000000000E+04  0.10000000000E+04  0.00000000000E+00 0.  1.
    9000005    2    1    2  501    0  0.33741647363E+02 -0.38854024004E+01 -0.92120265675E+03  0.92183368957E+03  0.30694153256E+01 0.  0.
         13    1    3    3    0    0  0.30978543723E+01  0.17739821994E+00 -0.10514931278E+03  0.10519508615E+03  0.00000000000E+00 0.  1.
          3    1    3    3  501    0  0.30643792991E+02 -0.40628006203E+01 -0.81605334396E+03  0.81663860342E+03  0.00000000000E+00 0.  1.
         -1    1    1    2    0  502 -0.33741647363E+02  0.38854024004E+01 -0.74807106321E+02  0.82156547363E+02  0.00000000000E+00 0. -1.
<mgrwt>
<rscale>  1 0.30000000E+03</rscale>
<asrwt>0</asrwt>
<pdfrwt beam="1">  1       21 0.14509983E-01 0.30000000E+03</pdfrwt>
<pdfrwt beam="2">0</pdfrwt>
<totfact> 0.43786170E+03</totfact>
</mgrwt>
</event>
<event>
 6    1  0.1273846E-001  0.3000000E+03  0.7818608E-02  0.1093470E+00
         21   -1    0    0  501  502  0.00000000000E+00  0.00000000000E+00  0.37494612136E+01  0.37494612136E+01  0.00000000000E+00 0. -1.
         13   -1    0    0    0    0 -0.00000000000E+00 -0.00000000000E+00 -0.10000000000E+04  0.10000000000E+04  0.00000000000E+00 0.  1.
    9000005    2    1    2  501    0  0.45426759465E+02 -0.15076599615E+02 -0.18583463605E+03  0.19192138228E+03  0.29001190168E+01 0.  0.
         13    1    3    3    0    0  0.30743636061E+01 -0.11052391383E+01 -0.15898906152E+02  0.16231096141E+02  0.00000000000E+00 0.  1.
          1    1    3    3  501    0  0.42352395858E+02 -0.13971360477E+02 -0.16993572990E+03  0.17569028614E+03  0.00000000000E+00 0.  1.
         -1    1    1    2    0  502 -0.45426759465E+02  0.15076599615E+02 -0.81041590273E+03  0.81182807893E+03  0.00000000000E+00 0. -1.
<mgrwt>
<rscale>  1 0.30000000E+03</rscale>
<asrwt>0</asrwt>
<pdfrwt beam="1">  1       21 0.13634433E-01 0.30000000E+03</pdfrwt>
<pdfrwt beam="2">0</pdfrwt>
<totfact> 0.49093580E+03</totfact>
</mgrwt>
</event>
<event>
 6    1  0.1273846E-001  0.3000000E+03  0.7818608E-02  0.1093470E+00
         21   -1    0    0  501  502  0.00000000000E+00  0.00000000000E+00  0.11628499360E+02  0.11628499360E+02  0.00000000000E+00 0. -1.
         13   -1    0    0    0    0 -0.00000000000E+00 -0.00000000000E+00 -0.10000000000E+04  0.10000000000E+04  0.00000000000E+00 0.  1.
    9000005    2    1    2  501    0 -0.24761142047E+02 -0.20004687092E+02 -0.97744227063E+03  0.97797215182E+03  0.47786679537E+01 0.  0.
         13    1    3    3    0    0 -0.15720631275E+02 -0.11866020906E+02 -0.66967075025E+03  0.66996033796E+03  0.00000000000E+00 0.  1.
          3    1    3    3  501    0 -0.90405107719E+01 -0.81386661857E+01 -0.30777152038E+03  0.30801181386E+03  0.00000000000E+00 0.  1.
         -1    1    1    2    0  502  0.24761142047E+02  0.20004687092E+02 -0.10929230015E+02  0.33656347541E+02  0.00000000000E+00 0. -1.
<mgrwt>
<rscale>  1 0.30000000E+03</rscale>
<asrwt>0</asrwt>
<pdfrwt beam="1">  1       21 0.42285541E-01 0.30000000E+03</pdfrwt>
<pdfrwt beam="2">0</pdfrwt>
<totfact> 0.53750139E+02</totfact>
</mgrwt>
</event>
<event>
 6    1  0.1273846E-001  0.3000000E+03  0.7818608E-02  0.1093470E+00
         21   -1    0    0  501  502  0.00000000000E+00  0.00000000000E+00  0.12461314181E+01  0.12461314181E+01  0.00000000000E+00 0. -1.
         13   -1    0    0    0    0 -0.00000000000E+00 -0.00000000000E+00 -0.10000000000E+04  0.10000000000E+04  0.00000000000E+00 0.  1.
    9000005    2    1    2  501    0  0.21742775906E+02 -0.21013154228E+02 -0.75663823270E+03  0.75724965174E+03  0.33643615622E+01 0.  0.
         13    1    3    3    0    0  0.15603529103E+02 -0.15448700170E+02 -0.51050128827E+03  0.51097328481E+03  0.00000000000E+00 0.  1.
          3    1    3    3  501    0  0.61392468028E+01 -0.55644540581E+01 -0.24613694443E+03  0.24627636694E+03  0.00000000000E+00 0.  1.
         -3    1    1    2    0  502 -0.21742775906E+02  0.21013154228E+02 -0.24211563588E+03  0.24399647967E+03  0.00000000000E+00 0. -1.
<mgrwt>
<rscale>  1 0.30000000E+03</rscale>
<asrwt>0</asrwt>
<pdfrwt beam="1">  1       21 0.45313965E-02 0.30000000E+03</pdfrwt>
<pdfrwt beam="2">0</pdfrwt>
<totfact> 0.34053920E+04</totfact>
</mgrwt>
</event>
<event>
 6    1  0.1273846E-001  0.3000000E+03  0.7818608E-02  0.1093470E+00
         21   -1    0    0  501  502  0.00000000000E+00  0.00000000000E+00  0.13698619860E+01  0.13698619860E+01  0.00000000000E+00 0. -1.
         13   -1    0    0    0    0 -0.00000000000E+00 -0.00000000000E+00 -0.10000000000E+04  0.10000000000E+04  0.00000000000E+00 0.  1.
    9000005    2    1    2  501    0 -0.84769385340E+01  0.30866097770E+02 -0.74965895341E+03  0.75034949380E+03  0.33529013433E+01 0.  0.
         13    1    3    3    0    0 -0.79855762045E+01  0.30508625028E+02 -0.72941619583E+03  0.73009761838E+03  0.00000000000E+00 0.  1.
          3    1    3    3  501    0 -0.49136232953E+00  0.35747274246E+00 -0.20242757575E+02  0.20251875418E+02  0.00000000000E+00 0.  1.
         -1    1    1    2    0  502  0.84769385340E+01 -0.30866097770E+02 -0.24897118461E+03  0.25102036818E+03  0.00000000000E+00 0. -1.
<mgrwt>
<rscale>  1 0.30000000E+03</rscale>
<asrwt>0</asrwt>
<pdfrwt beam="1">  1       21 0.49813268E-02 0.30000000E+03</pdfrwt>
<pdfrwt beam="2">0</pdfrwt>
<totfact> 0.28988954E+04</totfact>
</mgrwt>
</event>
<event>
 6    1  0.1273846E-001  0.3000000E+03  0.7818608E-02  0.1093470E+00
         21   -1    0    0  501  502  0.00000000000E+00  0.00000000000E+00  0.16241141864E+01  0.16241141864E+01  0.00000000000E+00 0. -1.
         13   -1    0    0    0    0 -0.00000000000E+00 -0.00000000000E+00 -0.10000000000E+04  0.10000000000E+04  0.00000000000E+00 0.  1.
    9000005    2    1    2  501    0 -0.24530549183E+02 -0.20052820708E+02 -0.80805854569E+03  0.80868745771E+03  0.35954873112E+01 0.  0.
         13    1    3    3    0    0 -0.78612469156E+01 -0.54477842590E+01 -0.20800276341E+03  0.20822254235E+03  0.00000000000E+00 0.  1.
          1    1    3    3  501    0 -0.16669302267E+02 -0.14605036449E+02 -0.60005578229E+03  0.60046491536E+03  0.00000000000E+00 0.  1.
         -1    1    1    2    0  502  0.24530549183E+02  0.20052820708E+02 -0.19031734012E+03  0.19293665648E+03  0.00000000000E+00 0. -1.
<mgrwt>
<rscale>  1 0.30000000E+03</rscale>
<asrwt>0</asrwt>
<pdfrwt beam="1">  1       21 0.59058822E-02 0.30000000E+03</pdfrwt>
<pdfrwt beam="2">0</pdfrwt>
<totfact> 0.21653966E+04</totfact>
</mgrwt>
</event>
<event>
 6    1  0.1273846E-001  0.3000000E+03  0.7818608E-02  0.1093470E+00
         21   -1    0    0  501  502  0.00000000000E+00  0.00000000000E+00  0.15723708427E+01  0.15723708427E+01  0.00000000000E+00 0. -1.
         13   -1    0    0    0    0 -0.00000000000E+00 -0.00000000000E+00 -0.10000000000E+04  0.10000000000E+04  0.00000000000E+00 0.  1.
    9000005    2    1    2  501    0 -0.32140152460E+02 -0.91551956371E+01 -0.76769100772E+03  0.76842821913E+03  0.39544415303E+01 0.  0.
         13    1    3    3    0    0 -0.29478139033E+02 -0.94917487812E+01 -0.70629041326E+03  0.70696902467E+03  0.00000000000E+00 0.  1.
          1    1    3    3  501    0 -0.26620134270E+01  0.33655314408E+00 -0.61400594459E+02  0.61459194458E+02  0.00000000000E+00 0.  1.
         -3    1    1    2    0  502  0.32140152460E+02  0.91551956371E+01 -0.23073662143E+03  0.23314415171E+03  0.00000000000E+00 0. -1.
<mgrwt>
<rscale>  1 0.30000000E+03</rscale>
<asrwt>0</asrwt>
<pdfrwt beam="1">  1       21 0.57177242E-02 0.30000000E+03</pdfrwt>
<pdfrwt beam="2">0</pdfrwt>
<totfact> 0.22895686E+04</totfact>
</mgrwt>
</event>
<event>
 6    1  0.1273846E-001  0.3000000E+03  0.7818608E-02  0.1093470E+00
         21   -1    0    0  501  502  0.00000000000E+00  0.00000000000E+00  0.99608904209E+00  0.99608904209E+00  0.00000000000E+00 0. -1.
         13   -1    0    0    0    0 -0.00000000000E+00 -0.00000000000E+00 -0.10000000000E+04  0.10000000000E+04  0.00000000000E+00 0.  1.
    9000005    2    1    2  501    0 -0.43737373598E+01  0.29747910809E+02 -0.64618883166E+03  0.64690210723E+03  0.42734529016E+01 0.  0.
         13    1    3    3    0    0 -0.16616015348E+01  0.13906717877E+02 -0.34601123887E+03  0.34629457857E+03  0.00000000000E+00 0.  1.
          3    1    3    3  501    0 -0.27121358250E+01  0.15841192932E+02 -0.30017759279E+03  0.30060752866E+03  0.00000000000E+00 0.  1.
         -3    1    1    2    0  502  0.43737373598E+01 -0.29747910809E+02 -0.35281507930E+03  0.35409398181E+03  0.00000000000E+00 0. -1.
<mgrwt>
<rscale>  1 0.30000000E+03</rscale>
<asrwt>0</asrwt>
<pdfrwt beam="1">  1       21 0.36221496E-02 0.30000000E+03</pdfrwt>
<pdfrwt beam="2">0</pdfrwt>
<totfact> 0.49676645E+04</totfact>
</mgrwt>
</event>
<event>
 6    1  0.1273846E-001  0.3000000E+03  0.7818608E-02  0.1093470E+00
         21   -1    0    0  501  502  0.00000000000E+00  0.00000000000E+00  0.15793738835E+01  0.15793738835E+01  0.00000000000E+00 0. -1.
         13   -1    0    0    0    0 -0.00000000000E+00 -0.00000000000E+00 -0.10000000000E+04  0.10000000000E+04  0.00000000000E+00 0.  1.
    9000005    2    1    2  501    0  0.19153130581E+02 -0.32235836741E+02 -0.33704672575E+03  0.33914339383E+03  0.34285068804E+01 0.  0.
         13    1    3    3    0    0  0.84060790541E+01 -0.13675651806E+02 -0.15960310915E+03  0.16040834787E+03  0.00000000000E+00 0.  1.
          1    1    3    3  501    0  0.10747051527E+02 -0.18560184934E+02 -0.17744361661E+03  0.17873504596E+03  0.00000000000E+00 0.  1.
         -1    1    1    2    0  502 -0.19153130581E+02  0.32235836741E+02 -0.66137390036E+03  0.66243598005E+03  0.00000000000E+00 0. -1.
<mgrwt>
<rscale>  1 0.30000000E+03</rscale>
<asrwt>0</asrwt>
<pdfrwt beam="1">  1       21 0.57431899E-02 0.30000000E+03</pdfrwt>
<pdfrwt beam="2">0</pdfrwt>
<totfact> 0.22721317E+04</totfact>
</mgrwt>
</event>
<event>
 6    1  0.1273846E-001  0.3000000E+03  0.7818608E-02  0.1093470E+00
         21   -1    0    0  501  502  0.00000000000E+00  0.00000000000E+00  0.11440486854E+01  0.11440486854E+01  0.00000000000E+00 0. -1.
         13   -1    0    0    0    0 -0.00000000000E+00 -0.00000000000E+00 -0.10000000000E+04  0.10000000000E+04  0.00000000000E+00 0.  1.
    9000005    2    1    2  501    0 -0.28779913409E+02  0.99990651594E+01 -0.71513350994E+03  0.71579042867E+03  0.34257856609E+01 0.  0.
         13    1    3    3    0    0 -0.25916084730E+02  0.90484769643E+01 -0.66487161292E+03  0.66543803623E+03  0.00000000000E+00 0.  1.
          3    1    3    3  501    0 -0.28638286798E+01  0.95058819503E+00 -0.50261897021E+02  0.50352392443E+02  0.00000000000E+00 0.  1.
         -1    1    1    2    0  502  0.28779913409E+02 -0.99990651594E+01 -0.28372244137E+03  0.28535362002E+03  0.00000000000E+00 0. -1.
<mgrwt>
<rscale>  1 0.30000000E+03</rscale>
<asrwt>0</asrwt>
<pdfrwt beam="1">  1       21 0.41601858E-02 0.30000000E+03</pdfrwt>
<pdfrwt beam="2">0</pdfrwt>
<totfact> 0.39354183E+04</totfact>
</mgrwt>
</event>
<event>
 6    1  0.1273846E-001  0.3000000E+03  0.7818608E-02  0.1093470E+00
         21   -1    0    0  501  502  0.00000000000E+00  0.00000000000E+00  0.66056839106E+01  0.66056839106E+01  0.00000000000E+00 0. -1.
         13   -1    0    0    0    0 -0.00000000000E+00 -0.00000000000E+00 -0.10000000000E+04  0.10000000000E+04  0.00000000000E+00 0.  1.
    9000005    2    1    2  501    0 -0.32466950066E+02 -0.68048929093E+00 -0.95806278764E+03  0.95861732266E+03  0.28810322666E+01 0.  0.
         13    1    3    3    0    0 -0.20282431724E+02  0.20002954671E+00 -0.56050236149E+03  0.56086924883E+03  0.00000000000E+00 0.  1.
          3    1    3    3  501    0 -0.12184518343E+02 -0.88051883764E+00 -0.39756042615E+03  0.39774807384E+03  0.00000000000E+00 0.  1.
         -1    1    1    2    0  502  0.32466950066E+02  0.68048929093E+00 -0.35331528454E+02  0.47988361247E+02  0.00000000000E+00 0. -1.
<mgrwt>
<rscale>  1 0.30000000E+03</rscale>
<asrwt>0</asrwt>
<pdfrwt beam="1">  1       21 0.24020719E-01 0.30000000E+03</pdfrwt>
<pdfrwt beam="2">0</pdfrwt>
<totfact> 0.16860744E+03</totfact>
</mgrwt>
</event>
<event>
 6    1  0.1273846E-001  0.3000000E+03  0.7818608E-02  0.1093470E+00
         21   -1    0    0  501  502  0.00000000000E+00  0.00000000000E+00  0.15512583577E+01  0.15512583577E+01  0.00000000000E+00 0. -1.
         13   -1    0    0    0    0 -0.00000000000E+00 -0.00000000000E+00 -0.10000000000E+04  0.10000000000E+04  0.00000000000E+00 0.  1.
    9000005    2    1    2  501    0  0.15353041230E+02  0.33261155112E+02 -0.68209015730E+03  0.68307869408E+03  0.27384845555E+01 0.  0.
         13    1    3    3    0    0  0.80390111997E+01  0.20084179940E+02 -0.41588444870E+03  0.41644672487E+03  0.00000000000E+00 0.  1.
          1    1    3    3  501    0  0.73140300307E+01  0.13176975172E+02 -0.26620570861E+03  0.26663196921E+03  0.00000000000E+00 0.  1.
         -1    1    1    2    0  502 -0.15353041230E+02 -0.33261155112E+02 -0.31635858434E+03  0.31847256428E+03  0.00000000000E+00 0. -1.
<mgrwt>
<rscale>  1 0.30000000E+03</rscale>
<asrwt>0</asrwt>
<pdfrwt beam="1">  1       21 0.56409514E-02 0.30000000E+03</pdfrwt>
<pdfrwt beam="2">0</pdfrwt>
<totfact> 0.23433960E+04</totfact>
</mgrwt>
</event>
<event>
 6    1  0.1273846E-001  0.3000000E+03  0.7818608E-02  0.1093470E+00
         21   -1    0    0  501  502  0.00000000000E+00  0.00000000000E+00  0.11714578067E+01  0.11714578067E+01  0.00000000000E+00 0. -1.
         13   -1    0    0    0    0 -0.00000000000E+00 -0.00000000000E+00 -0.10000000000E+04  0.10000000000E+04  0.00000000000E+00 0.  1.
    9000005    2    1    2  501    0 -0.25356218792E+02 -0.20185119464E+02 -0.34467187862E+03  0.34621243819E+03  0.37378559630E+01 0.  0.
         13    1    3    3    0    0 -0.21046371949E+01 -0.30963487614E+01 -0.35496718090E+02  0.35693611032E+02  0.00000000000E+00 0.  1.
          3    1    3    3  501    0 -0.23251581597E+02 -0.17088770703E+02 -0.30917516053E+03  0.31051882716E+03  0.00000000000E+00 0.  1.
         -3    1    1    2    0  502  0.25356218792E+02  0.20185119464E+02 -0.65415666357E+03  0.65495901961E+03  0.00000000000E+00 0. -1.
<mgrwt>
<rscale>  1 0.30000000E+03</rscale>
<asrwt>0</asrwt>
<pdfrwt beam="1">  1       21 0.42598556E-02 0.30000000E+03</pdfrwt>
<pdfrwt beam="2">0</pdfrwt>
<totfact> 0.37811639E+04</totfact>
</mgrwt>
</event>
<event>
 6    1  0.1273846E-001  0.3000000E+03  0.7818608E-02  0.1093470E+00
         21   -1    0    0  501  502  0.00000000000E+00  0.00000000000E+00  0.15915480136E+01  0.15915480136E+01  0.00000000000E+00 0. -1.
         13   -1    0    0    0    0 -0.00000000000E+00 -0.00000000000E+00 -0.10000000000E+04  0.10000000000E+04  0.00000000000E+00 0.  1.
    9000005    2    1    2  501    0  0.38346244773E+02 -0.61799118541E+01 -0.58917628443E+03  0.59052027346E+03  0.87677497716E+01 0.  0.
         13    1    3    3    0    0  0.31817220907E+02 -0.63818967884E+01 -0.43665284419E+03  0.43785702060E+03  0.00000000000E+00 0.  1.
          3    1    3    3  501    0  0.65290238662E+01  0.20198493433E+00 -0.15252344024E+03  0.15266325286E+03  0.00000000000E+00 0.  1.
         -3    1    1    2    0  502 -0.38346244773E+02  0.61799118541E+01 -0.40923216756E+03  0.41107127455E+03  0.00000000000E+00 0. -1.
<mgrwt>
<rscale>  1 0.30000000E+03</rscale>
<asrwt>0</asrwt>
<pdfrwt beam="1">  1       21 0.57874595E-02 0.30000000E+03</pdfrwt>
<pdfrwt beam="2">0</pdfrwt>
<totfact> 0.22422992E+04</totfact>
</mgrwt>
</event>
<event>
 6    1  0.1273846E-001  0.3000000E+03  0.7818608E-02  0.1093470E+00
         21   -1    0    0  501  502  0.00000000000E+00  0.00000000000E+00  0.98348178330E+00  0.98348178330E+00  0.00000000000E+00 0. -1.
         13   -1    0    0    0    0 -0.00000000000E+00 -0.00000000000E+00 -0.10000000000E+04  0.10000000000E+04  0.00000000000E+00 0.  1.
    9000005    2    1    2  501    0 -0.14887760592E+02 -0.26377158119E+02 -0.62590764164E+03  0.62664722430E+03  0.29946576313E+01 0.  0.
         13    1    3    3    0    0 -0.10594056678E+02 -0.17030881789E+02 -0.43640753922E+03  0.43686820125E+03  0.00000000000E+00 0.  1.
          3    1    3    3  501    0 -0.42937039142E+01 -0.93462763297E+01 -0.18950010242E+03  0.18977902306E+03  0.00000000000E+00 0.  1.
         -3    1    1    2    0  502  0.14887760592E+02  0.26377158119E+02 -0.37310887657E+03  0.37433625748E+03  0.00000000000E+00 0. -1.
<mgrwt>
<rscale>  1 0.30000000E+03</rscale>
<asrwt>0</asrwt>
<pdfrwt beam="1">  1       21 0.35763049E-02 0.30000000E+03</pdfrwt>
<pdfrwt beam="2">0</pdfrwt>
<totfact> 0.50749158E+04</totfact>
</mgrwt>
</event>
<event>
 6    1  0.1273846E-001  0.3000000E+03  0.7818608E-02  0.1093470E+00
         21   -1    0    0  501  502  0.00000000000E+00  0.00000000000E+00  0.23295300063E+01  0.23295300063E+01  0.00000000000E+00 0. -1.
         13   -1    0    0    0    0 -0.00000000000E+00 -0.00000000000E+00 -0.10000000000E+04  0.10000000000E+04  0.00000000000E+00 0.  1.
    9000005    2    1    2  501    0 -0.28049592429E+02 -0.12083454050E+02 -0.88669715730E+03  0.88723015717E+03  0.35656037524E+01 0.  0.
         13    1    3    3    0    0 -0.36116136859E+01 -0.31588296119E+00 -0.10483395348E+03  0.10489662214E+03  0.00000000000E+00 0.  1.
          3    1    3    3  501    0 -0.24437978743E+02 -0.11767571089E+02 -0.78186320382E+03  0.78233353502E+03  0.00000000000E+00 0.  1.
         -3    1    1    2    0  502  0.28049592429E+02  0.12083454050E+02 -0.11097331270E+03  0.11509937284E+03  0.00000000000E+00 0. -1.
<mgrwt>
<rscale>  1 0.30000000E+03</rscale>
<asrwt>0</asrwt>
<pdfrwt beam="1">  1       21 0.84710361E-02 0.30000000E+03</pdfrwt>
<pdfrwt beam="2">0</pdfrwt>
<totfact> 0.11550567E+04</totfact>
</mgrwt>
</event>
<event>
 6    1  0.1273846E-001  0.3000000E+03  0.7818608E-02  0.1093470E+00
         21   -1    0    0  501  502  0.00000000000E+00  0.00000000000E+00  0.29899272413E+01  0.29899272413E+01  0.00000000000E+00 0. -1.
         13   -1    0    0    0    0 -0.00000000000E+00 -0.00000000000E+00 -0.10000000000E+04  0.10000000000E+04  0.00000000000E+00 0.  1.
    9000005    2    1    2  501    0  0.27913132392E+02 -0.13133070243E+02 -0.91245617063E+03  0.91298446708E+03  0.35711778567E+01 0.  0.
         13    1    3    3    0    0  0.21366565404E+02 -0.84296033572E+01 -0.69083730668E+03  0.69121904823E+03  0.00000000000E+00 0.  1.
          3    1    3    3  501    0  0.65465669878E+01 -0.47034668860E+01 -0.22161886395E+03  0.22176541885E+03  0.00000000000E+00 0.  1.
         -3    1    1    2    0  502 -0.27913132392E+02  0.13133070243E+02 -0.84553902124E+02  0.90005460158E+02  0.00000000000E+00 0. -1.
<mgrwt>
<rscale>  1 0.30000000E+03</rscale>
<asrwt>0</asrwt>
<pdfrwt beam="1">  1       21 0.10872486E-01 0.30000000E+03</pdfrwt>
<pdfrwt beam="2">0</pdfrwt>
<totfact> 0.74056843E+03</totfact>
</mgrwt>
</event>
<event>
 6    1  0.1273846E-001  0.3000000E+03  0.7818608E-02  0.1093470E+00
         21   -1    0    0  501  502  0.00000000000E+00  0.00000000000E+00  0.12562977207E+01  0.12562977207E+01  0.00000000000E+00 0. -1.
         13   -1    0    0    0    0 -0.00000000000E+00 -0.00000000000E+00 -0.10000000000E+04  0.10000000000E+04  0.00000000000E+00 0.  1.
    9000005    2    1    2  501    0  0.30777628009E+02  0.48777719937E+01 -0.72562077368E+03  0.72636142841E+03  0.10215793822E+02 0.  0.
         13    1    3    3    0    0  0.17094706798E+02  0.73609638688E+01 -0.36798900062E+03  0.36845938360E+03  0.00000000000E+00 0.  1.
          3    1    3    3  501    0  0.13682921211E+02 -0.24831918751E+01 -0.35763177306E+03  0.35790204481E+03  0.00000000000E+00 0.  1.
         -1    1    1    2    0  502 -0.30777628009E+02 -0.48777719937E+01 -0.27312292860E+03  0.27489486931E+03  0.00000000000E+00 0. -1.
<mgrwt>
<rscale>  1 0.30000000E+03</rscale>
<asrwt>0</asrwt>
<pdfrwt beam="1">  1       21 0.45683650E-02 0.30000000E+03</pdfrwt>
<pdfrwt beam="2">0</pdfrwt>
<totfact> 0.33587233E+04</totfact>
</mgrwt>
</event>
<event>
 6    1  0.1273846E-001  0.3000000E+03  0.7818608E-02  0.1093470E+00
         21   -1    0    0  501  502  0.00000000000E+00  0.00000000000E+00  0.18219936758E+01  0.18219936758E+01  0.00000000000E+00 0. -1.
         13   -1    0    0    0    0 -0.00000000000E+00 -0.00000000000E+00 -0.10000000000E+04  0.10000000000E+04  0.00000000000E+00 0.  1.
    9000005    2    1    2  501    0  0.31528676931E+02 -0.52243088552E-01 -0.83630538981E+03  0.83690745770E+03  0.36506894325E+01 0.  0.
         13    1    3    3    0    0  0.18745120442E+02  0.14586476032E+01 -0.52241413378E+03  0.52275236429E+03  0.00000000000E+00 0.  1.
          3    1    3    3  501    0  0.12783556488E+02 -0.15108906918E+01 -0.31389125603E+03  0.31415509342E+03  0.00000000000E+00 0.  1.
         -3    1    1    2    0  502 -0.31528676931E+02  0.52243088552E-01 -0.16187261651E+03  0.16491453597E+03  0.00000000000E+00 0. -1.
<mgrwt>
<rscale>  1 0.30000000E+03</rscale>
<asrwt>0</asrwt>
<pdfrwt beam="1">  1       21 0.66254455E-02 0.30000000E+03</pdfrwt>
<pdfrwt beam="2">0</pdfrwt>
<totfact> 0.17752326E+04</totfact>
</mgrwt>
</event>
<event>
 6    1  0.1273846E-001  0.3000000E+03  0.7818608E-02  0.1093470E+00
         21   -1    0    0  501  502  0.00000000000E+00  0.00000000000E+00  0.13016476020E+01  0.13016476020E+01  0.00000000000E+00 0. -1.
         13   -1    0    0    0    0 -0.00000000000E+00 -0.00000000000E+00 -0.10000000000E+04  0.10000000000E+04  0.00000000000E+00 0.  1.
    9000005    2    1    2  501    0  0.30199098863E+02  0.13784209295E+02 -0.69343410239E+03  0.69423772538E+03  0.36297360624E+01 0.  0.
         13    1    3    3    0    0  0.11449704319E+02  0.71233271108E+01 -0.27104543785E+03  0.27138066787E+03  0.00000000000E+00 0.  1.
          1    1    3    3  501    0  0.18749394544E+02  0.66608821841E+01 -0.42238866455E+03  0.42285705751E+03  0.00000000000E+00 0.  1.
         -1    1    1    2    0  502 -0.30199098863E+02 -0.13784209295E+02 -0.30526425000E+03  0.30706392222E+03  0.00000000000E+00 0. -1.
<mgrwt>
<rscale>  1 0.30000000E+03</rscale>
<asrwt>0</asrwt>
<pdfrwt beam="1">  1       21 0.47332740E-02 0.30000000E+03</pdfrwt>
<pdfrwt beam="2">0</pdfrwt>
<totfact> 0.31622702E+04</totfact>
</mgrwt>
</event>
<event>
 6    1  0.1273846E-001  0.3000000E+03  0.7818608E-02  0.1093470E+00
         21   -1    0    0  501  502  0.00000000000E+00  0.00000000000E+00  0.46055205892E+01  0.46055205892E+01  0.00000000000E+00 0. -1.
         13   -1    0    0    0    0 -0.00000000000E+00 -0.00000000000E+00 -0.10000000000E+04  0.10000000000E+04  0.00000000000E+00 0.  1.
    9000005    2    1    2  501    0  0.28961910973E+02  0.29245607893E+02 -0.89698930314E+03  0.89793932827E+03  0.33360795470E+01 0.  0.
         13    1    3    3    0    0  0.28098380946E+02  0.28702096854E+02 -0.88286573381E+03  0.88377895048E+03  0.00000000000E+00 0.  1.
          3    1    3    3  501    0  0.86353002734E+00  0.54351103876E+00 -0.14123569333E+02  0.14160377787E+02  0.00000000000E+00 0.  1.
         -1    1    1    2    0  502 -0.28961910973E+02 -0.29245607893E+02 -0.98405176266E+02  0.10666619232E+03  0.00000000000E+00 0. -1.
<mgrwt>
<rscale>  1 0.30000000E+03</rscale>
<asrwt>0</asrwt>
<pdfrwt beam="1">  1       21 0.16747383E-01 0.30000000E+03</pdfrwt>
<pdfrwt beam="2">0</pdfrwt>
<totfact> 0.33542091E+03</totfact>
</mgrwt>
</event>
<event>
 6    1  0.1273846E-001  0.3000000E+03  0.7818608E-02  0.1093470E+00
         21   -1    0    0  501  502  0.00000000000E+00  0.00000000000E+00  0.14675343041E+02  0.14675343041E+02  0.00000000000E+00 0. -1.
         13   -1    0    0    0    0 -0.00000000000E+00 -0.00000000000E+00 -0.10000000000E+04  0.10000000000E+04  0.00000000000E+00 0.  1.
    9000005    2    1    2  501    0  0.30091468638E+02 -0.16943791254E+02 -0.97894167229E+03  0.97955652985E+03  0.34071807626E+01 0.  0.
         13    1    3    3    0    0  0.12529055159E+02 -0.72389003861E+01 -0.36367951448E+03  0.36396726247E+03  0.00000000000E+00 0.  1.
          1    1    3    3  501    0  0.17562413480E+02 -0.97048908677E+01 -0.61526215781E+03  0.61558926737E+03  0.00000000000E+00 0.  1.
         -3    1    1    2    0  502 -0.30091468638E+02  0.16943791254E+02 -0.63829846729E+01  0.35118813195E+02  0.00000000000E+00 0. -1.
<mgrwt>
<rscale>  1 0.30000000E+03</rscale>
<asrwt>0</asrwt>
<pdfrwt beam="1">  1       21 0.53364996E-01 0.30000000E+03</pdfrwt>
<pdfrwt beam="2">0</pdfrwt>
<totfact> 0.32590499E+02</totfact>
</mgrwt>
</event>
<event>
 6    1  0.1273846E-001  0.3000000E+03  0.7818608E-02  0.1093470E+00
         21   -1    0    0  501  502  0.00000000000E+00  0.00000000000E+00  0.10430107008E+01  0.10430107008E+01  0.00000000000E+00 0. -1.
         13   -1    0    0    0    0 -0.00000000000E+00 -0.00000000000E+00 -0.10000000000E+04  0.10000000000E+04  0.00000000000E+00 0.  1.
    9000005    2    1    2  501    0 -0.98097229310E+01  0.29144268475E+02 -0.64689598613E+03  0.64764158315E+03  0.44254144640E+01 0.  0.
         13    1    3    3    0    0 -0.88555278142E+01  0.27582938400E+02 -0.62422944930E+03  0.62490130760E+03  0.00000000000E+00 0.  1.
          3    1    3    3  501    0 -0.95419511672E+00  0.15613300750E+01 -0.22666536831E+02  0.22740275544E+02  0.00000000000E+00 0.  1.
         -1    1    1    2    0  502  0.98097229310E+01 -0.29144268475E+02 -0.35206100316E+03  0.35340142756E+03  0.00000000000E+00 0. -1.
<mgrwt>
<rscale>  1 0.30000000E+03</rscale>
<asrwt>0</asrwt>
<pdfrwt beam="1">  1       21 0.37927742E-02 0.30000000E+03</pdfrwt>
<pdfrwt beam="2">0</pdfrwt>
<totfact> 0.45982888E+04</totfact>
</mgrwt>
</event>
<event>
 6    1  0.1273846E-001  0.3000000E+03  0.7818608E-02  0.1093470E+00
         21   -1    0    0  501  502  0.00000000000E+00  0.00000000000E+00  0.11352344021E+01  0.11352344021E+01  0.00000000000E+00 0. -1.
         13   -1    0    0    0    0 -0.00000000000E+00 -0.00000000000E+00 -0.10000000000E+04  0.10000000000E+04  0.00000000000E+00 0.  1.
    9000005    2    1    2  501    0  0.28117725139E+02 -0.17925069157E+02 -0.43747452876E+03  0.43875554719E+03  0.32484312169E+01 0.  0.
         13    1    3    3    0    0  0.75635049998E+01 -0.31746326657E+01 -0.10548271808E+03  0.10580117539E+03  0.00000000000E+00 0.  1.
          1    1    3    3  501    0  0.20554220140E+02 -0.14750436492E+02 -0.33199181068E+03  0.33295437180E+03  0.00000000000E+00 0.  1.
         -1    1    1    2    0  502 -0.28117725139E+02  0.17925069157E+02 -0.56139023684E+03  0.56237968722E+03  0.00000000000E+00 0. -1.
<mgrwt>
<rscale>  1 0.30000000E+03</rscale>
<asrwt>0</asrwt>
<pdfrwt beam="1">  1       21 0.41281338E-02 0.30000000E+03</pdfrwt>
<pdfrwt beam="2">0</pdfrwt>
<totfact> 0.39871118E+04</totfact>
</mgrwt>
</event>
<event>
 6    1  0.1273846E-001  0.3000000E+03  0.7818608E-02  0.1093470E+00
         21   -1    0    0  501  502  0.00000000000E+00  0.00000000000E+00  0.96985995961E+00  0.96985995961E+00  0.00000000000E+00 0. -1.
         13   -1    0    0    0    0 -0.00000000000E+00 -0.00000000000E+00 -0.10000000000E+04  0.10000000000E+04  0.00000000000E+00 0.  1.
    9000005    2    1    2  501    0  0.29476332837E+02  0.68500765066E+01 -0.61245845916E+03  0.61321550189E+03  0.34799155462E+01 0.  0.
         13    1    3    3    0    0  0.28431960518E+02  0.67779001225E+01 -0.57498599255E+03  0.57572841508E+03  0.00000000000E+00 0.  1.
          3    1    3    3  501    0  0.10443723187E+01  0.72176384031E-01 -0.37472466614E+02  0.37487086805E+02  0.00000000000E+00 0.  1.
         -3    1    1    2    0  502 -0.29476332837E+02 -0.68500765066E+01 -0.38657168088E+03  0.38775435807E+03  0.00000000000E+00 0. -1.
<mgrwt>
<rscale>  1 0.30000000E+03</rscale>
<asrwt>0</asrwt>
<pdfrwt beam="1">  1       21 0.35267709E-02 0.30000000E+03</pdfrwt>
<pdfrwt beam="2">0</pdfrwt>
<totfact> 0.51949549E+04</totfact>
</mgrwt>
</event>
<event>
 6    1  0.1273846E-001  0.3000000E+03  0.7818608E-02  0.1093470E+00
         21   -1    0    0  501  502  0.00000000000E+00  0.00000000000E+00  0.63083917816E+01  0.63083917816E+01  0.00000000000E+00 0. -1.
         13   -1    0    0    0    0 -0.00000000000E+00 -0.00000000000E+00 -0.10000000000E+04  0.10000000000E+04  0.00000000000E+00 0.  1.
    9000005    2    1    2  501    0 -0.12763146407E+02 -0.53690981462E+02 -0.85860018906E+03  0.86037926198E+03  0.35454733883E+01 0.  0.
         13    1    3    3    0    0 -0.50989432067E+01 -0.20807959598E+02 -0.30690884587E+03  0.30765566804E+03  0.00000000000E+00 0.  1.
          3    1    3    3  501    0 -0.76642032005E+01 -0.32883021864E+02 -0.55169134320E+03  0.55272359394E+03  0.00000000000E+00 0.  1.
         -3    1    1    2    0  502  0.12763146407E+02  0.53690981462E+02 -0.13509141915E+03  0.14592912980E+03  0.00000000000E+00 0. -1.
<mgrwt>
<rscale>  1 0.30000000E+03</rscale>
<asrwt>0</asrwt>
<pdfrwt beam="1">  1       21 0.22939655E-01 0.30000000E+03</pdfrwt>
<pdfrwt beam="2">0</pdfrwt>
<totfact> 0.18436241E+03</totfact>
</mgrwt>
</event>
<event>
 6    1  0.1273846E-001  0.3000000E+03  0.7818608E-02  0.1093470E+00
         21   -1    0    0  501  502  0.00000000000E+00  0.00000000000E+00  0.15826959057E+01  0.15826959057E+01  0.00000000000E+00 0. -1.
         13   -1    0    0    0    0 -0.00000000000E+00 -0.00000000000E+00 -0.10000000000E+04  0.10000000000E+04  0.00000000000E+00 0.  1.
    9000005    2    1    2  501    0  0.29175574062E+02 -0.11257394405E+02 -0.80833698783E+03  0.80894710812E+03  0.29656011273E+01 0.  0.
         13    1    3    3    0    0  0.12312949751E+02 -0.58108802131E+01 -0.32346703256E+03  0.32375344974E+03  0.00000000000E+00 0.  1.
          1    1    3    3  501    0  0.16862624312E+02 -0.54465141915E+01 -0.48486995526E+03  0.48519365838E+03  0.00000000000E+00 0.  1.
         -3    1    1    2    0  502 -0.29175574062E+02  0.11257394405E+02 -0.19008031627E+03  0.19263558779E+03  0.00000000000E+00 0. -1.
<mgrwt>
<rscale>  1 0.30000000E+03</rscale>
<asrwt>0</asrwt>
<pdfrwt beam="1">  1       21 0.57552700E-02 0.30000000E+03</pdfrwt>
<pdfrwt beam="2">0</pdfrwt>
<totfact> 0.22639312E+04</totfact>
</mgrwt>
</event>
<event>
 6    1  0.1273846E-001  0.3000000E+03  0.7818608E-02  0.1093470E+00
         21   -1    0    0  501  502  0.00000000000E+00  0.00000000000E+00  0.17580538366E+01  0.17580538366E+01  0.00000000000E+00 0. -1.
         13   -1    0    0    0    0 -0.00000000000E+00 -0.00000000000E+00 -0.10000000000E+04  0.10000000000E+04  0.00000000000E+00 0.  1.
    9000005    2    1    2  501    0  0.15204772545E+02  0.28712927192E+02 -0.81541937357E+03  0.81607092358E+03  0.27166543271E+01 0.  0.
         13    1    3    3    0    0  0.28459256909E+01  0.38247611775E+01 -0.13601183366E+03  0.13609535990E+03  0.00000000000E+00 0.  1.
          1    1    3    3  501    0  0.12358846854E+02  0.24888166014E+02 -0.67940753991E+03  0.67997556367E+03  0.00000000000E+00 0.  1.
         -3    1    1    2    0  502 -0.15204772545E+02 -0.28712927192E+02 -0.18282257259E+03  0.18568713026E+03  0.00000000000E+00 0. -1.
<mgrwt>
<rscale>  1 0.30000000E+03</rscale>
<asrwt>0</asrwt>
<pdfrwt beam="1">  1       21 0.63929365E-02 0.30000000E+03</pdfrwt>
<pdfrwt beam="2">0</pdfrwt>
<totfact> 0.18885116E+04</totfact>
</mgrwt>
</event>
<event>
 6    1  0.1273846E-001  0.3000000E+03  0.7818608E-02  0.1093470E+00
         21   -1    0    0  501  502  0.00000000000E+00  0.00000000000E+00  0.15894621419E+01  0.15894621419E+01  0.00000000000E+00 0. -1.
         13   -1    0    0    0    0 -0.00000000000E+00 -0.00000000000E+00 -0.10000000000E+04  0.10000000000E+04  0.00000000000E+00 0.  1.
    9000005    2    1    2  501    0  0.32075180987E+02 -0.31996334896E+01 -0.79324881293E+03  0.79391089256E+03  0.34309203419E+01 0.  0.
         13    1    3    3    0    0  0.10586072604E+02 -0.19663574737E+01 -0.29834317063E+03  0.29853739959E+03  0.00000000000E+00 0.  1.
          1    1    3    3  501    0  0.21489108382E+02 -0.12332760159E+01 -0.49490564231E+03  0.49537349297E+03  0.00000000000E+00 0.  1.
         -1    1    1    2    0  502 -0.32075180987E+02  0.31996334896E+01 -0.20516172492E+03  0.20767856958E+03  0.00000000000E+00 0. -1.
<mgrwt>
<rscale>  1 0.30000000E+03</rscale>
<asrwt>0</asrwt>
<pdfrwt beam="1">  1       21 0.57798745E-02 0.30000000E+03</pdfrwt>
<pdfrwt beam="2">0</pdfrwt>
<totfact> 0.22473679E+04</totfact>
</mgrwt>
</event>
<event>
 6    1  0.1273846E-001  0.3000000E+03  0.7818608E-02  0.1093470E+00
         21   -1    0    0  501  502  0.00000000000E+00  0.00000000000E+00  0.14379656599E+01  0.14379656599E+01  0.00000000000E+00 0. -1.
         13   -1    0    0    0    0 -0.00000000000E+00 -0.00000000000E+00 -0.10000000000E+04  0.10000000000E+04  0.00000000000E+00 0.  1.
    9000005    2    1    2  501    0 -0.33122623891E+02 -0.11965408166E+02 -0.68372017194E+03  0.68463254032E+03  0.28570158597E+01 0.  0.
         13    1    3    3    0    0 -0.23109180301E+02 -0.74376194429E+01 -0.48972172855E+03  0.49032308105E+03  0.00000000000E+00 0.  1.
          3    1    3    3  501    0 -0.10013443590E+02 -0.45277887233E+01 -0.19399844339E+03  0.19430945927E+03  0.00000000000E+00 0.  1.
         -1    1    1    2    0  502  0.33122623891E+02  0.11965408166E+02 -0.31484186240E+03  0.31680542534E+03  0.00000000000E+00 0. -1.
<mgrwt>
<rscale>  1 0.30000000E+03</rscale>
<asrwt>0</asrwt>
<pdfrwt beam="1">  1       21 0.52289771E-02 0.30000000E+03</pdfrwt>
<pdfrwt beam="2">0</pdfrwt>
<totfact> 0.26685304E+04</totfact>
</mgrwt>
</event>
<event>
 6    1  0.1273846E-001  0.3000000E+03  0.7818608E-02  0.1093470E+00
         21   -1    0    0  501  502  0.00000000000E+00  0.00000000000E+00  0.23545297550E+01  0.23545297550E+01  0.00000000000E+00 0. -1.
         13   -1    0    0    0    0 -0.00000000000E+00 -0.00000000000E+00 -0.10000000000E+04  0.10000000000E+04  0.00000000000E+00 0.  1.
    9000005    2    1    2  501    0 -0.38946266341E+02  0.99491192469E+01 -0.77831148191E+03  0.77936754566E+03  0.54047870806E+01 0.  0.
         13    1    3    3    0    0 -0.27851627662E+01  0.17122842437E+00 -0.34141131992E+02  0.34254975471E+02  0.00000000000E+00 0.  1.
          1    1    3    3  501    0 -0.36161103575E+02  0.97778908225E+01 -0.74417034992E+03  0.74511257019E+03  0.00000000000E+00 0.  1.
         -1    1    1    2    0  502  0.38946266341E+02 -0.99491192469E+01 -0.21933398834E+03  0.22298698409E+03  0.00000000000E+00 0. -1.
<mgrwt>
<rscale>  1 0.30000000E+03</rscale>
<asrwt>0</asrwt>
<pdfrwt beam="1">  1       21 0.85619444E-02 0.30000000E+03</pdfrwt>
<pdfrwt beam="2">0</pdfrwt>
<totfact> 0.11335152E+04</totfact>
</mgrwt>
</event>
<event>
 6    1  0.1273846E-001  0.3000000E+03  0.7818608E-02  0.1093470E+00
         21   -1    0    0  501  502  0.00000000000E+00  0.00000000000E+00  0.31906905853E+01  0.31906905853E+01  0.00000000000E+00 0. -1.
         13   -1    0    0    0    0 -0.00000000000E+00 -0.00000000000E+00 -0.10000000000E+04  0.10000000000E+04  0.00000000000E+00 0.  1.
    9000005    2    1    2  501    0 -0.38340909784E+02 -0.89132910003E+00 -0.86650213832E+03  0.86735704722E+03  0.33870078587E+01 0.  0.
         13    1    3    3    0    0 -0.71495164022E+01  0.84894521584E+00 -0.14410760294E+03  0.14428734359E+03  0.00000000000E+00 0.  1.
          1    1    3    3  501    0 -0.31191393382E+02 -0.17402743159E+01 -0.72239453537E+03  0.72306970363E+03  0.00000000000E+00 0.  1.
         -1    1    1    2    0  502  0.38340909784E+02  0.89132910003E+00 -0.13030717110E+03  0.13583364337E+03  0.00000000000E+00 0. -1.
<mgrwt>
<rscale>  1 0.30000000E+03</rscale>
<asrwt>0</asrwt>
<pdfrwt beam="1">  1       21 0.11602536E-01 0.30000000E+03</pdfrwt>
<pdfrwt beam="2">0</pdfrwt>
<totfact> 0.65870222E+03</totfact>
</mgrwt>
</event>
<event>
 6    1  0.1273846E-001  0.3000000E+03  0.7818608E-02  0.1093470E+00
         21   -1    0    0  501  502  0.00000000000E+00  0.00000000000E+00  0.44879294012E+01  0.44879294012E+01  0.00000000000E+00 0. -1.
         13   -1    0    0    0    0 -0.00000000000E+00 -0.00000000000E+00 -0.10000000000E+04  0.10000000000E+04  0.00000000000E+00 0.  1.
    9000005    2    1    2  501    0 -0.56019938080E+02  0.35328633572E+02 -0.57021220316E+03  0.57406218312E+03  0.43689416311E+01 0.  0.
         13    1    3    3    0    0 -0.26632149013E+02  0.14438148434E+02 -0.25282192303E+03  0.25463043073E+03  0.00000000000E+00 0.  1.
          3    1    3    3  501    0 -0.29387789067E+02  0.20890485138E+02 -0.31739028013E+03  0.31943175239E+03  0.00000000000E+00 0.  1.
         -3    1    1    2    0  502  0.56019938080E+02 -0.35328633572E+02 -0.42529986744E+03  0.43042574628E+03  0.00000000000E+00 0. -1.
<mgrwt>
<rscale>  1 0.30000000E+03</rscale>
<asrwt>0</asrwt>
<pdfrwt beam="1">  1       21 0.16319778E-01 0.30000000E+03</pdfrwt>
<pdfrwt beam="2">0</pdfrwt>
<totfact> 0.35202961E+03</totfact>
</mgrwt>
</event>
<event>
 6    1  0.1273846E-001  0.3000000E+03  0.7818608E-02  0.1093470E+00
         21   -1    0    0  501  502  0.00000000000E+00  0.00000000000E+00  0.48236180357E+01  0.48236180357E+01  0.00000000000E+00 0. -1.
         13   -1    0    0    0    0 -0.00000000000E+00 -0.00000000000E+00 -0.10000000000E+04  0.10000000000E+04  0.00000000000E+00 0.  1.
    9000005    2    1    2  501    0  0.26461140378E+02  0.24288474713E+02 -0.92757053494E+03  0.92826858877E+03  0.23137965383E+01 0.  0.
         13    1    3    3    0    0  0.16445689408E+02  0.15290976686E+02 -0.60807481795E+03  0.60848932521E+03  0.00000000000E+00 0.  1.
          3    1    3    3  501    0  0.10015450971E+02  0.89974980280E+01 -0.31949571699E+03  0.31977926356E+03  0.00000000000E+00 0.  1.
         -1    1    1    2    0  502 -0.26461140378E+02 -0.24288474713E+02 -0.67605847028E+02  0.76555029269E+02  0.00000000000E+00 0. -1.
<mgrwt>
<rscale>  1 0.30000000E+03</rscale>
<asrwt>0</asrwt>
<pdfrwt beam="1">  1       21 0.17540466E-01 0.30000000E+03</pdfrwt>
<pdfrwt beam="2">0</pdfrwt>
<totfact> 0.30755735E+03</totfact>
</mgrwt>
</event>
<event>
 6    1  0.1273846E-001  0.3000000E+03  0.7818608E-02  0.1093470E+00
         21   -1    0    0  501  502  0.00000000000E+00  0.00000000000E+00  0.23970249740E+01  0.23970249740E+01  0.00000000000E+00 0. -1.
         13   -1    0    0    0    0 -0.00000000000E+00 -0.00000000000E+00 -0.10000000000E+04  0.10000000000E+04  0.00000000000E+00 0.  1.
    9000005    2    1    2  501    0 -0.18063074585E+02 -0.28928249473E+02 -0.85812447287E+03  0.85880952258E+03  0.36148096807E+01 0.  0.
         13    1    3    3    0    0 -0.47311127939E+01 -0.51443280357E+01 -0.19257637683E+03  0.19270316150E+03  0.00000000000E+00 0.  1.
          3    1    3    3  501    0 -0.13331961791E+02 -0.23783921437E+02 -0.66554809604E+03  0.66610636107E+03  0.00000000000E+00 0.  1.
         -3    1    1    2    0  502  0.18063074585E+02  0.28928249473E+02 -0.13947850215E+03  0.14358750240E+03  0.00000000000E+00 0. -1.
<mgrwt>
<rscale>  1 0.30000000E+03</rscale>
<asrwt>0</asrwt>
<pdfrwt beam="1">  1       21 0.87164728E-02 0.30000000E+03</pdfrwt>
<pdfrwt beam="2">0</pdfrwt>
<totfact> 0.10982772E+04</totfact>
</mgrwt>
</event>
<event>
 6    1  0.1273846E-001  0.3000000E+03  0.7818608E-02  0.1093470E+00
         21   -1    0    0  501  502  0.00000000000E+00  0.00000000000E+00  0.27076086783E+01  0.27076086783E+01  0.00000000000E+00 0. -1.
         13   -1    0    0    0    0 -0.00000000000E+00 -0.00000000000E+00 -0.10000000000E+04  0.10000000000E+04  0.00000000000E+00 0.  1.
    9000005    2    1    2  501    0  0.47087759487E+02 -0.15087462847E+01 -0.71099638381E+03  0.71256120197E+03  0.28417164999E+01 0.  0.
         13    1    3    3    0    0  0.33509655755E+02 -0.35460456162E+00 -0.52122822175E+03  0.52230439585E+03  0.00000000000E+00 0.  1.
          3    1    3    3  501    0  0.13578103731E+02 -0.11541417231E+01 -0.18976816205E+03  0.19025680611E+03  0.00000000000E+00 0.  1.
         -3    1    1    2    0  502 -0.47087759487E+02  0.15087462847E+01 -0.28629600752E+03  0.29014640671E+03  0.00000000000E+00 0. -1.
<mgrwt>
<rscale>  1 0.30000000E+03</rscale>
<asrwt>0</asrwt>
<pdfrwt beam="1">  1       21 0.98458705E-02 0.30000000E+03</pdfrwt>
<pdfrwt beam="2">0</pdfrwt>
<totfact> 0.88452116E+03</totfact>
</mgrwt>
</event>
<event>
 6    1  0.1273846E-001  0.3000000E+03  0.7818608E-02  0.1093470E+00
         21   -1    0    0  501  502  0.00000000000E+00  0.00000000000E+00  0.12140733340E+01  0.12140733340E+01  0.00000000000E+00 0. -1.
         13   -1    0    0    0    0 -0.00000000000E+00 -0.00000000000E+00 -0.10000000000E+04  0.10000000000E+04  0.00000000000E+00 0.  1.
    9000005    2    1    2  501    0 -0.14828049271E+02  0.31189865323E+02 -0.55609004831E+03  0.55717317493E+03  0.36230215991E+01 0.  0.
         13    1    3    3    0    0 -0.55674415655E+00  0.20072411594E+00 -0.11888124493E+02  0.11902846642E+02  0.00000000000E+00 0.  1.
          3    1    3    3  501    0 -0.14271305115E+02  0.30989141207E+02 -0.54420192382E+03  0.54527032829E+03  0.00000000000E+00 0.  1.
         -1    1    1    2    0  502  0.14828049271E+02 -0.31189865323E+02 -0.44269587836E+03  0.44404089841E+03  0.00000000000E+00 0. -1.
<mgrwt>
<rscale>  1 0.30000000E+03</rscale>
<asrwt>0</asrwt>
<pdfrwt beam="1">  1       21 0.44148214E-02 0.30000000E+03</pdfrwt>
<pdfrwt beam="2">0</pdfrwt>
<totfact> 0.35593043E+04</totfact>
</mgrwt>
</event>
<event>
 6    1  0.1273846E-001  0.3000000E+03  0.7818608E-02  0.1093470E+00
         21   -1    0    0  501  502  0.00000000000E+00  0.00000000000E+00  0.28201690219E+01  0.28201690219E+01  0.00000000000E+00 0. -1.
         13   -1    0    0    0    0 -0.00000000000E+00 -0.00000000000E+00 -0.10000000000E+04  0.10000000000E+04  0.00000000000E+00 0.  1.
    9000005    2    1    2  501    0 -0.13841107834E+01  0.34937427827E+02 -0.87581157504E+03  0.87651580182E+03  0.33906095341E+01 0.  0.
         13    1    3    3    0    0 -0.22068234092E+01  0.27000043617E+02 -0.65444977567E+03  0.65501021465E+03  0.00000000000E+00 0.  1.
          3    1    3    3  501    0  0.82271262581E+00  0.79373842097E+01 -0.22136179938E+03  0.22150558717E+03  0.00000000000E+00 0.  1.
         -1    1    1    2    0  502  0.13841107834E+01 -0.34937427827E+02 -0.12136825593E+03  0.12630436720E+03  0.00000000000E+00 0. -1.
<mgrwt>
<rscale>  1 0.30000000E+03</rscale>
<asrwt>0</asrwt>
<pdfrwt beam="1">  1       21 0.10255182E-01 0.30000000E+03</pdfrwt>
<pdfrwt beam="2">0</pdfrwt>
<totfact> 0.82241448E+03</totfact>
</mgrwt>
</event>
<event>
 6    1  0.1273846E-001  0.3000000E+03  0.7818608E-02  0.1093470E+00
         21   -1    0    0  501  502  0.00000000000E+00  0.00000000000E+00  0.19681697405E+01  0.19681697405E+01  0.00000000000E+00 0. -1.
         13   -1    0    0    0    0 -0.00000000000E+00 -0.00000000000E+00 -0.10000000000E+04  0.10000000000E+04  0.00000000000E+00 0.  1.
    9000005    2    1    2  501    0  0.33754429305E+02  0.19207369241E+01 -0.82289116173E+03  0.82359411193E+03  0.37876666750E+01 0.  0.
         13    1    3    3    0    0  0.67869547340E+01  0.18164057212E+01 -0.18376111532E+03  0.18389537675E+03  0.00000000000E+00 0.  1.
          3    1    3    3  501    0  0.26967474571E+02  0.10433120290E+00 -0.63913004641E+03  0.63969873518E+03  0.00000000000E+00 0.  1.
         -1    1    1    2    0  502 -0.33754429305E+02 -0.19207369241E+01 -0.17514066853E+03  0.17837405781E+03  0.00000000000E+00 0. -1.
<mgrwt>
<rscale>  1 0.30000000E+03</rscale>
<asrwt>0</asrwt>
<pdfrwt beam="1">  1       21 0.71569960E-02 0.30000000E+03</pdfrwt>
<pdfrwt beam="2">0</pdfrwt>
<totfact> 0.15523764E+04</totfact>
</mgrwt>
</event>
<event>
 6    1  0.1273846E-001  0.3000000E+03  0.7818608E-02  0.1093470E+00
         21   -1    0    0  501  502  0.00000000000E+00  0.00000000000E+00  0.13537294193E+01  0.13537294193E+01  0.00000000000E+00 0. -1.
         13   -1    0    0    0    0 -0.00000000000E+00 -0.00000000000E+00 -0.10000000000E+04  0.10000000000E+04  0.00000000000E+00 0.  1.
    9000005    2    1    2  501    0 -0.97636234019E+01 -0.35401392788E+02 -0.50093093331E+03  0.50228545363E+03  0.32078060628E+01 0.  0.
         13    1    3    3    0    0 -0.86944451182E+01 -0.29870961252E+02 -0.43761818204E+03  0.43872262417E+03  0.00000000000E+00 0.  1.
          1    1    3    3  501    0 -0.10691782836E+01 -0.55304315364E+01 -0.63312751273E+02  0.63562829460E+02  0.00000000000E+00 0.  1.
         -3    1    1    2    0  502  0.97636234019E+01  0.35401392788E+02 -0.49771533727E+03  0.49906827579E+03  0.00000000000E+00 0. -1.
<mgrwt>
<rscale>  1 0.30000000E+03</rscale>
<asrwt>0</asrwt>
<pdfrwt beam="1">  1       21 0.49226628E-02 0.30000000E+03</pdfrwt>
<pdfrwt beam="2">0</pdfrwt>
<totfact> 0.29580070E+04</totfact>
</mgrwt>
</event>
<event>
 6    1  0.1273846E-001  0.3000000E+03  0.7818608E-02  0.1093470E+00
         21   -1    0    0  501  502  0.00000000000E+00  0.00000000000E+00  0.60336412521E+01  0.60336412521E+01  0.00000000000E+00 0. -1.
         13   -1    0    0    0    0 -0.00000000000E+00 -0.00000000000E+00 -0.10000000000E+04  0.10000000000E+04  0.00000000000E+00 0.  1.
    9000005    2    1    2  501    0  0.59857423634E+02  0.30452149394E+02 -0.74953109000E+03  0.75254035697E+03  0.31447462524E+01 0.  0.
         13    1    3    3    0    0  0.42933514884E+02  0.21292755788E+02 -0.54942430795E+03  0.55151041542E+03  0.00000000000E+00 0.  1.
          1    1    3    3  501    0  0.16923908750E+02  0.91593936063E+01 -0.20010678205E+03  0.20102994155E+03  0.00000000000E+00 0.  1.
         -3    1    1    2    0  502 -0.59857423634E+02 -0.30452149394E+02 -0.24443526875E+03  0.25349328428E+03  0.00000000000E+00 0. -1.
<mgrwt>
<rscale>  1 0.30000000E+03</rscale>
<asrwt>0</asrwt>
<pdfrwt beam="1">  1       21 0.21940560E-01 0.30000000E+03</pdfrwt>
<pdfrwt beam="2">0</pdfrwt>
<totfact> 0.20090298E+03</totfact>
</mgrwt>
</event>
<event>
 6    1  0.1273846E-001  0.3000000E+03  0.7818608E-02  0.1093470E+00
         21   -1    0    0  501  502  0.00000000000E+00  0.00000000000E+00  0.26224640482E+01  0.26224640482E+01  0.00000000000E+00 0. -1.
         13   -1    0    0    0    0 -0.00000000000E+00 -0.00000000000E+00 -0.10000000000E+04  0.10000000000E+04  0.00000000000E+00 0.  1.
    9000005    2    1    2  501    0 -0.32286493601E+02  0.18678052705E+02 -0.84181680158E+03  0.84265237496E+03  0.40262012014E+01 0.  0.
         13    1    3    3    0    0 -0.31008034155E+02  0.17376857431E+02 -0.81409839587E+03  0.81487400960E+03  0.00000000000E+00 0.  1.
          1    1    3    3  501    0 -0.12784594455E+01  0.13011952740E+01 -0.27718405705E+02  0.27778365368E+02  0.00000000000E+00 0.  1.
         -1    1    1    2    0  502  0.32286493601E+02 -0.18678052705E+02 -0.15556073438E+03  0.15997008908E+03  0.00000000000E+00 0. -1.
<mgrwt>
<rscale>  1 0.30000000E+03</rscale>
<asrwt>0</asrwt>
<pdfrwt beam="1">  1       21 0.95362530E-02 0.30000000E+03</pdfrwt>
<pdfrwt beam="2">0</pdfrwt>
<totfact> 0.93639605E+03</totfact>
</mgrwt>
</event>
<event>
 6    1  0.1273846E-001  0.3000000E+03  0.7818608E-02  0.1093470E+00
         21   -1    0    0  501  502  0.00000000000E+00  0.00000000000E+00  0.12245543881E+01  0.12245543881E+01  0.00000000000E+00 0. -1.
         13   -1    0    0    0    0 -0.00000000000E+00 -0.00000000000E+00 -0.10000000000E+04  0.10000000000E+04  0.00000000000E+00 0.  1.
    9000005    2    1    2  501    0 -0.21135119130E+02 -0.27714103498E+02 -0.47261867171E+03  0.47391466873E+03  0.34553714958E+01 0.  0.
         13    1    3    3    0    0 -0.13217409894E+01 -0.11296321588E+01 -0.16112443451E+02  0.16205983526E+02  0.00000000000E+00 0.  1.
          1    1    3    3  501    0 -0.19813378141E+02 -0.26584471339E+02 -0.45650622826E+03  0.45770868520E+03  0.00000000000E+00 0.  1.
         -1    1    1    2    0  502  0.21135119130E+02  0.27714103498E+02 -0.52615677390E+03  0.52730988566E+03  0.00000000000E+00 0. -1.
<mgrwt>
<rscale>  1 0.30000000E+03</rscale>
<asrwt>0</asrwt>
<pdfrwt beam="1">  1       21 0.44529344E-02 0.30000000E+03</pdfrwt>
<pdfrwt beam="2">0</pdfrwt>
<totfact> 0.35078227E+04</totfact>
</mgrwt>
</event>
<event>
 6    1  0.1273846E-001  0.3000000E+03  0.7818608E-02  0.1093470E+00
         21   -1    0    0  501  502  0.00000000000E+00  0.00000000000E+00  0.41325548142E+01  0.41325548142E+01  0.00000000000E+00 0. -1.
         13   -1    0    0    0    0 -0.00000000000E+00 -0.00000000000E+00 -0.10000000000E+04  0.10000000000E+04  0.00000000000E+00 0.  1.
    9000005    2    1    2  501    0 -0.51793404984E+02 -0.17839934076E+02 -0.76030623192E+03  0.76228569161E+03  0.36179117424E+01 0.  0.
         13    1    3    3    0    0 -0.36688288334E+02 -0.12000841617E+02 -0.55637164045E+03  0.55770911145E+03  0.00000000000E+00 0.  1.
          3    1    3    3  501    0 -0.15105116650E+02 -0.58390924589E+01 -0.20393459148E+03  0.20457658016E+03  0.00000000000E+00 0.  1.
         -1    1    1    2    0  502  0.51793404984E+02  0.17839934076E+02 -0.23556121326E+03  0.24184686320E+03  0.00000000000E+00 0. -1.
<mgrwt>
<rscale>  1 0.30000000E+03</rscale>
<asrwt>0</asrwt>
<pdfrwt beam="1">  1       21 0.15027504E-01 0.30000000E+03</pdfrwt>
<pdfrwt beam="2">0</pdfrwt>
<totfact> 0.41040953E+03</totfact>
</mgrwt>
</event>
<event>
 6    1  0.1273846E-001  0.3000000E+03  0.7818608E-02  0.1093470E+00
         21   -1    0    0  501  502  0.00000000000E+00  0.00000000000E+00  0.11061108664E+01  0.11061108664E+01  0.00000000000E+00 0. -1.
         13   -1    0    0    0    0 -0.00000000000E+00 -0.00000000000E+00 -0.10000000000E+04  0.10000000000E+04  0.00000000000E+00 0.  1.
    9000005    2    1    2  501    0  0.23941733693E+02  0.22741529279E+02 -0.49928314998E+03  0.50040532752E+03  0.56075119417E+01 0.  0.
         13    1    3    3    0    0  0.64493610789E+01  0.73020431632E+01 -0.11353365527E+03  0.11395088842E+03  0.00000000000E+00 0.  1.
          3    1    3    3  501    0  0.17492372614E+02  0.15439486116E+02 -0.38574949471E+03  0.38645443910E+03  0.00000000000E+00 0.  1.
         -3    1    1    2    0  502 -0.23941733693E+02 -0.22741529279E+02 -0.49961073915E+03  0.50070078335E+03  0.00000000000E+00 0. -1.
<mgrwt>
<rscale>  1 0.30000000E+03</rscale>
<asrwt>0</asrwt>
<pdfrwt beam="1">  1       21 0.40222298E-02 0.30000000E+03</pdfrwt>
<pdfrwt beam="2">0</pdfrwt>
<totfact> 0.41656666E+04</totfact>
</mgrwt>
</event>
<event>
 6    1  0.1273846E-001  0.3000000E+03  0.7818608E-02  0.1093470E+00
         21   -1    0    0  501  502  0.00000000000E+00  0.00000000000E+00  0.19780218793E+01  0.19780218793E+01  0.00000000000E+00 0. -1.
         13   -1    0    0    0    0 -0.00000000000E+00 -0.00000000000E+00 -0.10000000000E+04  0.10000000000E+04  0.00000000000E+00 0.  1.
    9000005    2    1    2  501    0 -0.42205215345E+02  0.79186867152E+01 -0.37567028473E+03  0.37814662153E+03  0.47664179566E+01 0.  0.
         13    1    3    3    0    0 -0.13359932851E+02  0.49301109104E+00 -0.10808535947E+03  0.10890902532E+03  0.00000000000E+00 0.  1.
          3    1    3    3  501    0 -0.28845282494E+02  0.74256756242E+01 -0.26758492526E+03  0.26923759620E+03  0.00000000000E+00 0.  1.
         -1    1    1    2    0  502  0.42205215345E+02 -0.79186867152E+01 -0.62235169339E+03  0.62383140035E+03  0.00000000000E+00 0. -1.
<mgrwt>
<rscale>  1 0.30000000E+03</rscale>
<asrwt>0</asrwt>
<pdfrwt beam="1">  1       21 0.71928220E-02 0.30000000E+03</pdfrwt>
<pdfrwt beam="2">0</pdfrwt>
<totfact> 0.15389168E+04</totfact>
</mgrwt>
</event>
<event>
 6    1  0.1273846E-001  0.3000000E+03  0.7818608E-02  0.1093470E+00
         21   -1    0    0  501  502  0.00000000000E+00  0.00000000000E+00  0.17384884914E+01  0.17384884914E+01  0.00000000000E+00 0. -1.
         13   -1    0    0    0    0 -0.00000000000E+00 -0.00000000000E+00 -0.10000000000E+04  0.10000000000E+04  0.00000000000E+00 0.  1.
    9000005    2    1    2  501    0  0.16104412503E+02 -0.37759844627E+02 -0.41767252898E+03  0.41970006656E+03  0.35561832585E+01 0.  0.
         13    1    3    3    0    0  0.27553198925E+00 -0.25848050946E+00 -0.17430267122E+01  0.17834999777E+01  0.00000000000E+00 0.  1.
          3    1    3    3  501    0  0.15828880514E+02 -0.37501364118E+02 -0.41592950227E+03  0.41791656658E+03  0.00000000000E+00 0.  1.
         -1    1    1    2    0  502 -0.16104412503E+02  0.37759844627E+02 -0.58058898253E+03  0.58203842193E+03  0.00000000000E+00 0. -1.
<mgrwt>
<rscale>  1 0.30000000E+03</rscale>
<asrwt>0</asrwt>
<pdfrwt beam="1">  1       21 0.63217897E-02 0.30000000E+03</pdfrwt>
<pdfrwt beam="2">0</pdfrwt>
<totfact> 0.19254153E+04</totfact>
</mgrwt>
</event>
<event>
 6    1  0.1273846E-001  0.3000000E+03  0.7818608E-02  0.1093470E+00
         21   -1    0    0  501  502  0.00000000000E+00  0.00000000000E+00  0.13406848336E+01  0.13406848336E+01  0.00000000000E+00 0. -1.
         13   -1    0    0    0    0 -0.00000000000E+00 -0.00000000000E+00 -0.10000000000E+04  0.10000000000E+04  0.00000000000E+00 0.  1.
    9000005    2    1    2  501    0 -0.19481296590E+02  0.26860147612E+02 -0.29030819100E+03  0.29221283771E+03  0.29169023175E+01 0.  0.
         13    1    3    3    0    0 -0.19436408662E+02  0.26602010141E+02 -0.28495902292E+03  0.28685725661E+03  0.00000000000E+00 0.  1.
          1    1    3    3  501    0 -0.44887928160E-01  0.25813747084E+00 -0.53491680750E+01  0.53555811052E+01  0.00000000000E+00 0.  1.
         -1    1    1    2    0  502  0.19481296590E+02 -0.26860147612E+02 -0.70835112417E+03  0.70912784712E+03  0.00000000000E+00 0. -1.
<mgrwt>
<rscale>  1 0.30000000E+03</rscale>
<asrwt>0</asrwt>
<pdfrwt beam="1">  1       21 0.48752279E-02 0.30000000E+03</pdfrwt>
<pdfrwt beam="2">0</pdfrwt>
<totfact> 0.30071907E+04</totfact>
</mgrwt>
</event>
<event>
 6    1  0.1273846E-001  0.3000000E+03  0.7818608E-02  0.1093470E+00
         21   -1    0    0  501  502  0.00000000000E+00  0.00000000000E+00  0.21548900158E+01  0.21548900158E+01  0.00000000000E+00 0. -1.
         13   -1    0    0    0    0 -0.00000000000E+00 -0.00000000000E+00 -0.10000000000E+04  0.10000000000E+04  0.00000000000E+00 0.  1.
    9000005    2    1    2  501    0 -0.23303784046E+01  0.44760834730E+02 -0.37106852091E+03  0.37377772970E+03  0.29968356028E+01 0.  0.
         13    1    3    3    0    0  0.20134979341E+00  0.49007619159E+01 -0.34264861342E+02  0.34614140635E+02  0.00000000000E+00 0.  1.
          3    1    3    3  501    0 -0.25317281980E+01  0.39860072814E+02 -0.33680365957E+03  0.33916358907E+03  0.00000000000E+00 0.  1.
         -3    1    1    2    0  502  0.23303784046E+01 -0.44760834730E+02 -0.62677658908E+03  0.62837716031E+03  0.00000000000E+00 0. -1.
<mgrwt>
<rscale>  1 0.30000000E+03</rscale>
<asrwt>0</asrwt>
<pdfrwt beam="1">  1       21 0.78359802E-02 0.30000000E+03</pdfrwt>
<pdfrwt beam="2">0</pdfrwt>
<totfact> 0.13246943E+04</totfact>
</mgrwt>
</event>
<event>
 6    1  0.1273846E-001  0.3000000E+03  0.7818608E-02  0.1093470E+00
         21   -1    0    0  501  502  0.00000000000E+00  0.00000000000E+00  0.22252137264E+01  0.22252137264E+01  0.00000000000E+00 0. -1.
         13   -1    0    0    0    0 -0.00000000000E+00 -0.00000000000E+00 -0.10000000000E+04  0.10000000000E+04  0.00000000000E+00 0.  1.
    9000005    2    1    2  501    0 -0.19741641806E+02 -0.34750144525E+02 -0.76449776749E+03  0.76554933312E+03  0.34117423342E+01 0.  0.
         13    1    3    3    0    0 -0.40721833917E+01 -0.76593435877E+01 -0.14095007194E+03  0.14121675185E+03  0.00000000000E+00 0.  1.
          1    1    3    3  501    0 -0.15669458414E+02 -0.27090800937E+02 -0.62354769554E+03  0.62433258127E+03  0.00000000000E+00 0.  1.
         -3    1    1    2    0  502  0.19741641806E+02  0.34750144525E+02 -0.23327701879E+03  0.23667588060E+03  0.00000000000E+00 0. -1.
<mgrwt>
<rscale>  1 0.30000000E+03</rscale>
<asrwt>0</asrwt>
<pdfrwt beam="1">  1       21 0.80917033E-02 0.30000000E+03</pdfrwt>
<pdfrwt beam="2">0</pdfrwt>
<totfact> 0.12520601E+04</totfact>
</mgrwt>
</event>
<event>
 6    1  0.1273846E-001  0.3000000E+03  0.7818608E-02  0.1093470E+00
         21   -1    0    0  501  502  0.00000000000E+00  0.00000000000E+00  0.16699888705E+01  0.16699888705E+01  0.00000000000E+00 0. -1.
         13   -1    0    0    0    0 -0.00000000000E+00 -0.00000000000E+00 -0.10000000000E+04  0.10000000000E+04  0.00000000000E+00 0.  1.
    9000005    2    1    2  501    0 -0.33687611495E+02 -0.15083618257E+02 -0.71289214622E+03  0.71385556006E+03  0.34896671955E+01 0.  0.
         13    1    3    3    0    0 -0.24393301305E+02 -0.11409074346E+02 -0.54723310955E+03  0.54789531510E+03  0.00000000000E+00 0.  1.
          3    1    3    3  501    0 -0.92943101900E+01 -0.36745439110E+01 -0.16565903667E+03  0.16596024496E+03  0.00000000000E+00 0.  1.
         -1    1    1    2    0  502  0.33687611495E+02  0.15083618257E+02 -0.28543786491E+03  0.28781442881E+03  0.00000000000E+00 0. -1.
<mgrwt>
<rscale>  1 0.30000000E+03</rscale>
<asrwt>0</asrwt>
<pdfrwt beam="1">  1       21 0.60726996E-02 0.30000000E+03</pdfrwt>
<pdfrwt beam="2">0</pdfrwt>
<totfact> 0.20638391E+04</totfact>
</mgrwt>
</event>
<event>
 6    1  0.1273846E-001  0.3000000E+03  0.7818608E-02  0.1093470E+00
         21   -1    0    0  501  502  0.00000000000E+00  0.00000000000E+00  0.22054550172E+01  0.22054550172E+01  0.00000000000E+00 0. -1.
         13   -1    0    0    0    0 -0.00000000000E+00 -0.00000000000E+00 -0.10000000000E+04  0.10000000000E+04  0.00000000000E+00 0.  1.
    9000005    2    1    2  501    0 -0.52761526169E+01 -0.44425301850E+02 -0.65012205057E+03  0.65166642923E+03  0.30015184635E+01 0.  0.
         13    1    3    3    0    0 -0.42135558896E+01 -0.27529527503E+02 -0.42031215543E+03  0.42123382692E+03  0.00000000000E+00 0.  1.
          1    1    3    3  501    0 -0.10625967273E+01 -0.16895774347E+02 -0.22980989514E+03  0.23043260231E+03  0.00000000000E+00 0.  1.
         -3    1    1    2    0  502  0.52761526169E+01  0.44425301850E+02 -0.34767249441E+03  0.35053902579E+03  0.00000000000E+00 0. -1.
<mgrwt>
<rscale>  1 0.30000000E+03</rscale>
<asrwt>0</asrwt>
<pdfrwt beam="1">  1       21 0.80198533E-02 0.30000000E+03</pdfrwt>
<pdfrwt beam="2">0</pdfrwt>
<totfact> 0.12718374E+04</totfact>
</mgrwt>
</event>
<event>
 6    1  0.1273846E-001  0.3000000E+03  0.7818608E-02  0.1093470E+00
         21   -1    0    0  501  502  0.00000000000E+00  0.00000000000E+00  0.12262874699E+01  0.12262874699E+01  0.00000000000E+00 0. -1.
         13   -1    0    0    0    0 -0.00000000000E+00 -0.00000000000E+00 -0.10000000000E+04  0.10000000000E+04  0.00000000000E+00 0.  1.
    9000005    2    1    2  501    0  0.34595832298E+02  0.39424569020E+01 -0.54280248634E+03  0.54392750801E+03  0.31906454462E+01 0.  0.
         13    1    3    3    0    0  0.30804776842E+02  0.39874606096E+01 -0.46874720964E+03  0.46977524484E+03  0.00000000000E+00 0.  1.
          3    1    3    3  501    0  0.37910554559E+01 -0.45003707646E-01 -0.74055276694E+02  0.74152263169E+02  0.00000000000E+00 0.  1.
         -3    1    1    2    0  502 -0.34595832298E+02 -0.39424569020E+01 -0.45597122619E+03  0.45729877946E+03  0.00000000000E+00 0. -1.
<mgrwt>
<rscale>  1 0.30000000E+03</rscale>
<asrwt>0</asrwt>
<pdfrwt beam="1">  1       21 0.44592366E-02 0.30000000E+03</pdfrwt>
<pdfrwt beam="2">0</pdfrwt>
<totfact> 0.34994209E+04</totfact>
</mgrwt>
</event>
<event>
 6    1  0.1273846E-001  0.3000000E+03  0.7818608E-02  0.1093470E+00
         21   -1    0    0  501  502  0.00000000000E+00  0.00000000000E+00  0.28480638778E+01  0.28480638778E+01  0.00000000000E+00 0. -1.
         13   -1    0    0    0    0 -0.00000000000E+00 -0.00000000000E+00 -0.10000000000E+04  0.10000000000E+04  0.00000000000E+00 0.  1.
    9000005    2    1    2  501    0  0.34308495938E+02  0.79464208501E+01 -0.87519483598E+03  0.87590810652E+03  0.29650718447E+01 0.  0.
         13    1    3    3    0    0  0.90063304690E+01  0.18253197092E+01 -0.19807695869E+03  0.19829000818E+03  0.00000000000E+00 0.  1.
          3    1    3    3  501    0  0.25302165469E+02  0.61211011409E+01 -0.67711787729E+03  0.67761809834E+03  0.00000000000E+00 0.  1.
         -1    1    1    2    0  502 -0.34308495938E+02 -0.79464208501E+01 -0.12195710015E+03  0.12693995736E+03  0.00000000000E+00 0. -1.
<mgrwt>
<rscale>  1 0.30000000E+03</rscale>
<asrwt>0</asrwt>
<pdfrwt beam="1">  1       21 0.10356618E-01 0.30000000E+03</pdfrwt>
<pdfrwt beam="2">0</pdfrwt>
<totfact> 0.80804994E+03</totfact>
</mgrwt>
</event>
<event>
 6    1  0.1273846E-001  0.3000000E+03  0.7818608E-02  0.1093470E+00
         21   -1    0    0  501  502  0.00000000000E+00  0.00000000000E+00  0.58229210598E+01  0.58229210598E+01  0.00000000000E+00 0. -1.
         13   -1    0    0    0    0 -0.00000000000E+00 -0.00000000000E+00 -0.10000000000E+04  0.10000000000E+04  0.00000000000E+00 0.  1.
    9000005    2    1    2  501    0  0.31270040340E+02  0.14275260591E+01 -0.95571437886E+03  0.95623227123E+03  0.32139259120E+01 0.  0.
         13    1    3    3    0    0  0.13825466142E+02  0.16601912775E+01 -0.46167869756E+03  0.46188864408E+03  0.00000000000E+00 0.  1.
          3    1    3    3  501    0  0.17444574198E+02 -0.23266521839E+00 -0.49403568131E+03  0.49434362715E+03  0.00000000000E+00 0.  1.
         -3    1    1    2    0  502 -0.31270040340E+02 -0.14275260591E+01 -0.38462700078E+02  0.49590649832E+02  0.00000000000E+00 0. -1.
<mgrwt>
<rscale>  1 0.30000000E+03</rscale>
<asrwt>0</asrwt>
<pdfrwt beam="1">  1       21 0.21174303E-01 0.30000000E+03</pdfrwt>
<pdfrwt beam="2">0</pdfrwt>
<totfact> 0.21510557E+03</totfact>
</mgrwt>
</event>
<event>
 6    1  0.1273846E-001  0.3000000E+03  0.7818608E-02  0.1093470E+00
         21   -1    0    0  501  502  0.00000000000E+00  0.00000000000E+00  0.34898780494E+01  0.34898780494E+01  0.00000000000E+00 0. -1.
         13   -1    0    0    0    0 -0.00000000000E+00 -0.00000000000E+00 -0.10000000000E+04  0.10000000000E+04  0.00000000000E+00 0.  1.
    9000005    2    1    2  501    0 -0.57525326632E+01 -0.35166534560E+02 -0.89836895058E+03  0.89907979088E+03  0.28146429768E+01 0.  0.
         13    1    3    3    0    0 -0.36214265968E+01 -0.17011925604E+02 -0.40945498963E+03  0.40982424144E+03  0.00000000000E+00 0.  1.
          3    1    3    3  501    0 -0.21311060664E+01 -0.18154608957E+02 -0.48891396095E+03  0.48925554943E+03  0.00000000000E+00 0.  1.
         -1    1    1    2    0  502  0.57525326632E+01  0.35166534560E+02 -0.98141171373E+02  0.10441008717E+03  0.00000000000E+00 0. -1.
<mgrwt>
<rscale>  1 0.30000000E+03</rscale>
<asrwt>0</asrwt>
<pdfrwt beam="1">  1       21 0.12690492E-01 0.30000000E+03</pdfrwt>
<pdfrwt beam="2">0</pdfrwt>
<totfact> 0.55972852E+03</totfact>
</mgrwt>
</event>
<event>
 6    1  0.1273846E-001  0.3000000E+03  0.7818608E-02  0.1093470E+00
         21   -1    0    0  501  502  0.00000000000E+00  0.00000000000E+00  0.25521900862E+01  0.25521900862E+01  0.00000000000E+00 0. -1.
         13   -1    0    0    0    0 -0.00000000000E+00 -0.00000000000E+00 -0.10000000000E+04  0.10000000000E+04  0.00000000000E+00 0.  1.
    9000005    2    1    2  501    0 -0.27754632881E+02  0.23595137806E+02 -0.84568042749E+03  0.84647404125E+03  0.39833285308E+01 0.  0.
         13    1    3    3    0    0 -0.23653709875E+02  0.18322626805E+02 -0.70706950992E+03  0.70770227391E+03  0.00000000000E+00 0.  1.
          3    1    3    3  501    0 -0.41009230064E+01  0.52725110014E+01 -0.13861091757E+03  0.13877176734E+03  0.00000000000E+00 0.  1.
         -3    1    1    2    0  502  0.27754632881E+02 -0.23595137806E+02 -0.15176738243E+03  0.15607814883E+03  0.00000000000E+00 0. -1.
<mgrwt>
<rscale>  1 0.30000000E+03</rscale>
<asrwt>0</asrwt>
<pdfrwt beam="1">  1       21 0.92807108E-02 0.30000000E+03</pdfrwt>
<pdfrwt beam="2">0</pdfrwt>
<totfact> 0.98276860E+03</totfact>
</mgrwt>
</event>
<event>
 6    1  0.1273846E-001  0.3000000E+03  0.7818608E-02  0.1093470E+00
         21   -1    0    0  501  502  0.00000000000E+00  0.00000000000E+00  0.23936464407E+01  0.23936464407E+01  0.00000000000E+00 0. -1.
         13   -1    0    0    0    0 -0.00000000000E+00 -0.00000000000E+00 -0.10000000000E+04  0.10000000000E+04  0.00000000000E+00 0.  1.
    9000005    2    1    2  501    0 -0.10561966928E+02  0.47052017858E+02 -0.58077546057E+03  0.58278258739E+03  0.31561101775E+01 0.  0.
         13    1    3    3    0    0 -0.30014091161E+01  0.15543581676E+02 -0.20792739936E+03  0.20852917012E+03  0.00000000000E+00 0.  1.
          1    1    3    3  501    0 -0.75605578116E+01  0.31508436182E+02 -0.37284806121E+03  0.37425341727E+03  0.00000000000E+00 0.  1.
         -1    1    1    2    0  502  0.10561966928E+02 -0.47052017858E+02 -0.41683089299E+03  0.41961105905E+03  0.00000000000E+00 0. -1.
<mgrwt>
<rscale>  1 0.30000000E+03</rscale>
<asrwt>0</asrwt>
<pdfrwt beam="1">  1       21 0.87041872E-02 0.30000000E+03</pdfrwt>
<pdfrwt beam="2">0</pdfrwt>
<totfact> 0.11010174E+04</totfact>
</mgrwt>
</event>
<event>
 6    1  0.1273846E-001  0.3000000E+03  0.7818608E-02  0.1093470E+00
         21   -1    0    0  501  502  0.00000000000E+00  0.00000000000E+00  0.44215264687E+01  0.44215264687E+01  0.00000000000E+00 0. -1.
         13   -1    0    0    0    0 -0.00000000000E+00 -0.00000000000E+00 -0.10000000000E+04  0.10000000000E+04  0.00000000000E+00 0.  1.
    9000005    2    1    2  501    0  0.61928157308E+02 -0.23289073671E+02 -0.54450790115E+03  0.54852445597E+03  0.35702609773E+01 0.  0.
         13    1    3    3    0    0  0.56060457048E+02 -0.21980031745E+02 -0.49972361938E+03  0.50333844718E+03  0.00000000000E+00 0.  1.
          1    1    3    3  501    0  0.58677002603E+01 -0.13090419256E+01 -0.44784281770E+02  0.45186008795E+02  0.00000000000E+00 0.  1.
         -1    1    1    2    0  502 -0.61928157308E+02  0.23289073671E+02 -0.45107057238E+03  0.45589707049E+03  0.00000000000E+00 0. -1.
<mgrwt>
<rscale>  1 0.30000000E+03</rscale>
<asrwt>0</asrwt>
<pdfrwt beam="1">  1       21 0.16078312E-01 0.30000000E+03</pdfrwt>
<pdfrwt beam="2">0</pdfrwt>
<totfact> 0.36195678E+03</totfact>
</mgrwt>
</event>
<event>
 6    1  0.1273846E-001  0.3000000E+03  0.7818608E-02  0.1093470E+00
         21   -1    0    0  501  502  0.00000000000E+00  0.00000000000E+00  0.20625295269E+01  0.20625295269E+01  0.00000000000E+00 0. -1.
         13   -1    0    0    0    0 -0.00000000000E+00 -0.00000000000E+00 -0.10000000000E+04  0.10000000000E+04  0.00000000000E+00 0.  1.
    9000005    2    1    2  501    0  0.21019344929E+02  0.26919748600E+02 -0.82886373486E+03  0.82957364931E+03  0.32958958975E+01 0.  0.
         13    1    3    3    0    0  0.16634040307E+02  0.19622427829E+02 -0.59817569588E+03  0.59872856464E+03  0.00000000000E+00 0.  1.
          3    1    3    3  501    0  0.43853046226E+01  0.72973207704E+01 -0.23068803898E+03  0.23084508467E+03  0.00000000000E+00 0.  1.
         -1    1    1    2    0  502 -0.21019344929E+02 -0.26919748600E+02 -0.16907373561E+03  0.17248888022E+03  0.00000000000E+00 0. -1.
<mgrwt>
<rscale>  1 0.30000000E+03</rscale>
<asrwt>0</asrwt>
<pdfrwt beam="1">  1       21 0.75001232E-02 0.30000000E+03</pdfrwt>
<pdfrwt beam="2">0</pdfrwt>
<totfact> 0.14304052E+04</totfact>
</mgrwt>
</event>
<event>
 6    1  0.1273846E-001  0.3000000E+03  0.7818608E-02  0.1093470E+00
         21   -1    0    0  501  502  0.00000000000E+00  0.00000000000E+00  0.30152096865E+01  0.30152096865E+01  0.00000000000E+00 0. -1.
         13   -1    0    0    0    0 -0.00000000000E+00 -0.00000000000E+00 -0.10000000000E+04  0.10000000000E+04  0.00000000000E+00 0.  1.
    9000005    2    1    2  501    0  0.39355607692E+02  0.62969067205E+01 -0.84322029865E+03  0.84416926612E+03  0.35725222065E+01 0.  0.
         13    1    3    3    0    0  0.31768980622E+02  0.64975920566E+01 -0.68382454945E+03  0.68459294567E+03  0.00000000000E+00 0.  1.
          3    1    3    3  501    0  0.75866270708E+01 -0.20068533608E+00 -0.15939574920E+03  0.15957632045E+03  0.00000000000E+00 0.  1.
         -1    1    1    2    0  502 -0.39355607692E+02 -0.62969067205E+01 -0.15376449167E+03  0.15884594357E+03  0.00000000000E+00 0. -1.
<mgrwt>
<rscale>  1 0.30000000E+03</rscale>
<asrwt>0</asrwt>
<pdfrwt beam="1">  1       21 0.10964422E-01 0.30000000E+03</pdfrwt>
<pdfrwt beam="2">0</pdfrwt>
<totfact> 0.72944086E+03</totfact>
</mgrwt>
</event>
<event>
 6    1  0.1273846E-001  0.3000000E+03  0.7818608E-02  0.1093470E+00
         21   -1    0    0  501  502  0.00000000000E+00  0.00000000000E+00  0.15008641358E+01  0.15008641358E+01  0.00000000000E+00 0. -1.
         13   -1    0    0    0    0 -0.00000000000E+00 -0.00000000000E+00 -0.10000000000E+04  0.10000000000E+04  0.00000000000E+00 0.  1.
    9000005    2    1    2  501    0 -0.34418579996E+02 -0.17370010199E+02 -0.53847674306E+03  0.53986577255E+03  0.33902285976E+01 0.  0.
         13    1    3    3    0    0 -0.16817432534E+02 -0.93083084853E+01 -0.24696155875E+03  0.24770846199E+03  0.00000000000E+00 0.  1.
          1    1    3    3  501    0 -0.17601147462E+02 -0.80617017133E+01 -0.29151518432E+03  0.29215731056E+03  0.00000000000E+00 0.  1.
         -3    1    1    2    0  502  0.34418579996E+02  0.17370010199E+02 -0.46002239280E+03  0.46163509158E+03  0.00000000000E+00 0. -1.
<mgrwt>
<rscale>  1 0.30000000E+03</rscale>
<asrwt>0</asrwt>
<pdfrwt beam="1">  1       21 0.54576993E-02 0.30000000E+03</pdfrwt>
<pdfrwt beam="2">0</pdfrwt>
<totfact> 0.24800214E+04</totfact>
</mgrwt>
</event>
<event>
 6    1  0.1273846E-001  0.3000000E+03  0.7818608E-02  0.1093470E+00
         21   -1    0    0  501  502  0.00000000000E+00  0.00000000000E+00  0.22567468235E+01  0.22567468235E+01  0.00000000000E+00 0. -1.
         13   -1    0    0    0    0 -0.00000000000E+00 -0.00000000000E+00 -0.10000000000E+04  0.10000000000E+04  0.00000000000E+00 0.  1.
    9000005    2    1    2  501    0 -0.44514680886E+00 -0.33694545080E+02 -0.85183531135E+03  0.85250813076E+03  0.33458678331E+01 0.  0.
         13    1    3    3    0    0 -0.20199943209E+00 -0.12474812220E+02 -0.27579153127E+03  0.27607359610E+03  0.00000000000E+00 0.  1.
          1    1    3    3  501    0 -0.24314737677E+00 -0.21219732860E+02 -0.57604378008E+03  0.57643453467E+03  0.00000000000E+00 0.  1.
         -3    1    1    2    0  502  0.44514680886E+00  0.33694545080E+02 -0.14590794183E+03  0.14974861606E+03  0.00000000000E+00 0. -1.
<mgrwt>
<rscale>  1 0.30000000E+03</rscale>
<asrwt>0</asrwt>
<pdfrwt beam="1">  1       21 0.82063694E-02 0.30000000E+03</pdfrwt>
<pdfrwt beam="2">0</pdfrwt>
<totfact> 0.12214608E+04</totfact>
</mgrwt>
</event>
<event>
 6    1  0.1273846E-001  0.3000000E+03  0.7818608E-02  0.1093470E+00
         21   -1    0    0  501  502  0.00000000000E+00  0.00000000000E+00  0.31052589605E+01  0.31052589605E+01  0.00000000000E+00 0. -1.
         13   -1    0    0    0    0 -0.00000000000E+00 -0.00000000000E+00 -0.10000000000E+04  0.10000000000E+04  0.00000000000E+00 0.  1.
    9000005    2    1    2  501    0 -0.17910664831E+02  0.45294826669E+02 -0.74159078641E+03  0.74319657791E+03  0.34417562798E+01 0.  0.
         13    1    3    3    0    0 -0.71386217957E+01  0.14476500558E+02 -0.23118336449E+03  0.23174614777E+03  0.00000000000E+00 0.  1.
          3    1    3    3  501    0 -0.10772043036E+02  0.30818326111E+02 -0.51040742192E+03  0.51145043014E+03  0.00000000000E+00 0.  1.
         -1    1    1    2    0  502  0.17910664831E+02 -0.45294826669E+02 -0.25530395463E+03  0.25990868105E+03  0.00000000000E+00 0. -1.
<mgrwt>
<rscale>  1 0.30000000E+03</rscale>
<asrwt>0</asrwt>
<pdfrwt beam="1">  1       21 0.11291875E-01 0.30000000E+03</pdfrwt>
<pdfrwt beam="2">0</pdfrwt>
<totfact> 0.69178840E+03</totfact>
</mgrwt>
</event>
<event>
 6    1  0.1273846E-001  0.3000000E+03  0.7818608E-02  0.1093470E+00
         21   -1    0    0  501  502  0.00000000000E+00  0.00000000000E+00  0.33998063176E+01  0.33998063176E+01  0.00000000000E+00 0. -1.
         13   -1    0    0    0    0 -0.00000000000E+00 -0.00000000000E+00 -0.10000000000E+04  0.10000000000E+04  0.00000000000E+00 0.  1.
    9000005    2    1    2  501    0  0.94339875043E+01  0.50422762896E+02 -0.73633391115E+03  0.73812637576E+03  0.33856668068E+01 0.  0.
         13    1    3    3    0    0  0.94197506086E-01  0.60304007055E+01 -0.92095740769E+02  0.92293012052E+02  0.00000000000E+00 0.  1.
          3    1    3    3  501    0  0.93397899983E+01  0.44392362191E+02 -0.64423817038E+03  0.64583336371E+03  0.00000000000E+00 0.  1.
         -1    1    1    2    0  502 -0.94339875043E+01 -0.50422762896E+02 -0.26026628253E+03  0.26527343056E+03  0.00000000000E+00 0. -1.
<mgrwt>
<rscale>  1 0.30000000E+03</rscale>
<asrwt>0</asrwt>
<pdfrwt beam="1">  1       21 0.12362958E-01 0.30000000E+03</pdfrwt>
<pdfrwt beam="2">0</pdfrwt>
<totfact> 0.58703486E+03</totfact>
</mgrwt>
</event>
<event>
 6    1  0.1273846E-001  0.3000000E+03  0.7818608E-02  0.1093470E+00
         21   -1    0    0  501  502  0.00000000000E+00  0.00000000000E+00  0.11607531455E+01  0.11607531455E+01  0.00000000000E+00 0. -1.
         13   -1    0    0    0    0 -0.00000000000E+00 -0.00000000000E+00 -0.10000000000E+04  0.10000000000E+04  0.00000000000E+00 0.  1.
    9000005    2    1    2  501    0 -0.33334789852E+02 -0.39743520551E+01 -0.56753915494E+03  0.56855611496E+03  0.53253907702E+01 0.  0.
         13    1    3    3    0    0 -0.18888063517E+02 -0.41898900077E+01 -0.29433532503E+03  0.29497050307E+03  0.00000000000E+00 0.  1.
          3    1    3    3  501    0 -0.14446726334E+02  0.21553795265E+00 -0.27320382990E+03  0.27358561189E+03  0.00000000000E+00 0.  1.
         -3    1    1    2    0  502  0.33334789852E+02  0.39743520551E+01 -0.43130009192E+03  0.43260463818E+03  0.00000000000E+00 0. -1.
<mgrwt>
<rscale>  1 0.30000000E+03</rscale>
<asrwt>0</asrwt>
<pdfrwt beam="1">  1       21 0.42209294E-02 0.30000000E+03</pdfrwt>
<pdfrwt beam="2">0</pdfrwt>
<totfact> 0.38402702E+04</totfact>
</mgrwt>
</event>
<event>
 6    1  0.1273846E-001  0.3000000E+03  0.7818608E-02  0.1093470E+00
         21   -1    0    0  501  502  0.00000000000E+00  0.00000000000E+00  0.29787596561E+01  0.29787596561E+01  0.00000000000E+00 0. -1.
         13   -1    0    0    0    0 -0.00000000000E+00 -0.00000000000E+00 -0.10000000000E+04  0.10000000000E+04  0.00000000000E+00 0.  1.
    9000005    2    1    2  501    0  0.27455421255E+02 -0.19569728436E+02 -0.89190643995E+03  0.89258901516E+03  0.90154277976E+01 0.  0.
         13    1    3    3    0    0  0.18894721552E+02 -0.80355954252E+01 -0.53162363609E+03  0.53201999187E+03  0.00000000000E+00 0.  1.
          3    1    3    3  501    0  0.85606997029E+01 -0.11534133011E+02 -0.36028280386E+03  0.36056902330E+03  0.00000000000E+00 0.  1.
         -3    1    1    2    0  502 -0.27455421255E+02  0.19569728436E+02 -0.10511480039E+03  0.11038974449E+03  0.00000000000E+00 0. -1.
<mgrwt>
<rscale>  1 0.30000000E+03</rscale>
<asrwt>0</asrwt>
<pdfrwt beam="1">  1       21 0.10831876E-01 0.30000000E+03</pdfrwt>
<pdfrwt beam="2">0</pdfrwt>
<totfact> 0.74556544E+03</totfact>
</mgrwt>
</event>
<event>
 6    1  0.1273846E-001  0.3000000E+03  0.7818608E-02  0.1093470E+00
         21   -1    0    0  501  502  0.00000000000E+00  0.00000000000E+00  0.16708727244E+01  0.16708727244E+01  0.00000000000E+00 0. -1.
         13   -1    0    0    0    0 -0.00000000000E+00 -0.00000000000E+00 -0.10000000000E+04  0.10000000000E+04  0.00000000000E+00 0.  1.
    9000005    2    1    2  501    0  0.18557200874E+02 -0.33593946223E+02 -0.66876507309E+03  0.66987969029E+03  0.43764776613E+01 0.  0.
         13    1    3    3    0    0  0.56006911455E+01 -0.11603757795E+02 -0.25928310229E+03  0.25960304711E+03  0.00000000000E+00 0.  1.
          1    1    3    3  501    0  0.12956509728E+02 -0.21990188428E+02 -0.40948197079E+03  0.41027664318E+03  0.00000000000E+00 0.  1.
         -3    1    1    2    0  502 -0.18557200874E+02  0.33593946223E+02 -0.32956405419E+03  0.33179118243E+03  0.00000000000E+00 0. -1.
<mgrwt>
<rscale>  1 0.30000000E+03</rscale>
<asrwt>0</asrwt>
<pdfrwt beam="1">  1       21 0.60759136E-02 0.30000000E+03</pdfrwt>
<pdfrwt beam="2">0</pdfrwt>
<totfact> 0.20619557E+04</totfact>
</mgrwt>
</event>
<event>
 6    1  0.1273846E-001  0.3000000E+03  0.7818608E-02  0.1093470E+00
         21   -1    0    0  501  502  0.00000000000E+00  0.00000000000E+00  0.99876144489E+01  0.99876144489E+01  0.00000000000E+00 0. -1.
         13   -1    0    0    0    0 -0.00000000000E+00 -0.00000000000E+00 -0.10000000000E+04  0.10000000000E+04  0.00000000000E+00 0.  1.
    9000005    2    1    2  501    0  0.85742306761E+02  0.51251093130E+02 -0.50554113664E+03  0.51532529656E+03  0.31468596195E+01 0.  0.
         13    1    3    3    0    0  0.38670024794E+02  0.23657060591E+02 -0.22171970271E+03  0.22630654852E+03  0.00000000000E+00 0.  1.
          3    1    3    3  501    0  0.47072281967E+02  0.27594032540E+02 -0.28382143393E+03  0.28901874804E+03  0.00000000000E+00 0.  1.
         -1    1    1    2    0  502 -0.85742306761E+02 -0.51251093130E+02 -0.48447124891E+03  0.49466231789E+03  0.00000000000E+00 0. -1.
<mgrwt>
<rscale>  1 0.30000000E+03</rscale>
<asrwt>0</asrwt>
<pdfrwt beam="1">  1       21 0.36318675E-01 0.30000000E+03</pdfrwt>
<pdfrwt beam="2">0</pdfrwt>
<totfact> 0.73768336E+02</totfact>
</mgrwt>
</event>
<event>
 6    1  0.1273846E-001  0.3000000E+03  0.7818608E-02  0.1093470E+00
         21   -1    0    0  501  502  0.00000000000E+00  0.00000000000E+00  0.15283751057E+01  0.15283751057E+01  0.00000000000E+00 0. -1.
         13   -1    0    0    0    0 -0.00000000000E+00 -0.00000000000E+00 -0.10000000000E+04  0.10000000000E+04  0.00000000000E+00 0.  1.
    9000005    2    1    2  501    0 -0.18807558217E+02 -0.32525634353E+02 -0.63527997417E+03  0.63639851287E+03  0.32833630750E+01 0.  0.
         13    1    3    3    0    0 -0.95889310448E+01 -0.15441315647E+02 -0.28130877363E+03  0.28189538476E+03  0.00000000000E+00 0.  1.
          1    1    3    3  501    0 -0.92186271719E+01 -0.17084318706E+02 -0.35397120054E+03  0.35450312812E+03  0.00000000000E+00 0.  1.
         -1    1    1    2    0  502  0.18807558217E+02  0.32525634353E+02 -0.36319165073E+03  0.36512986223E+03  0.00000000000E+00 0. -1.
<mgrwt>
<rscale>  1 0.30000000E+03</rscale>
<asrwt>0</asrwt>
<pdfrwt beam="1">  1       21 0.55577394E-02 0.30000000E+03</pdfrwt>
<pdfrwt beam="2">0</pdfrwt>
<totfact> 0.24039624E+04</totfact>
</mgrwt>
</event>
<event>
 6    1  0.1273846E-001  0.3000000E+03  0.7818608E-02  0.1093470E+00
         21   -1    0    0  501  502  0.00000000000E+00  0.00000000000E+00  0.15500149354E+01  0.15500149354E+01  0.00000000000E+00 0. -1.
         13   -1    0    0    0    0 -0.00000000000E+00 -0.00000000000E+00 -0.10000000000E+04  0.10000000000E+04  0.00000000000E+00 0.  1.
    9000005    2    1    2  501    0  0.84850020756E+01  0.31765731107E+02 -0.77359523310E+03  0.77430407676E+03  0.40201604229E+01 0.  0.
         13    1    3    3    0    0  0.30984876829E+01  0.14143686335E+02 -0.29694648986E+03  0.29729928074E+03  0.00000000000E+00 0.  1.
          3    1    3    3  501    0  0.53865143927E+01  0.17622044772E+02 -0.47664874323E+03  0.47700479602E+03  0.00000000000E+00 0.  1.
         -1    1    1    2    0  502 -0.84850020756E+01 -0.31765731107E+02 -0.22485475197E+03  0.22724593817E+03  0.00000000000E+00 0. -1.
<mgrwt>
<rscale>  1 0.30000000E+03</rscale>
<asrwt>0</asrwt>
<pdfrwt beam="1">  1       21 0.56364298E-02 0.30000000E+03</pdfrwt>
<pdfrwt beam="2">0</pdfrwt>
<totfact> 0.23466266E+04</totfact>
</mgrwt>
</event>
<event>
 6    1  0.1273846E-001  0.3000000E+03  0.7818608E-02  0.1093470E+00
         21   -1    0    0  501  502  0.00000000000E+00  0.00000000000E+00  0.14003060846E+01  0.14003060846E+01  0.00000000000E+00 0. -1.
         13   -1    0    0    0    0 -0.00000000000E+00 -0.00000000000E+00 -0.10000000000E+04  0.10000000000E+04  0.00000000000E+00 0.  1.
    9000005    2    1    2  501    0 -0.14385695756E+02 -0.33992999017E+02 -0.54466995699E+03  0.54597228950E+03  0.76096406196E+01 0.  0.
         13    1    3    3    0    0 -0.26834928977E+01 -0.77229183740E+01 -0.17207288947E+03  0.17226701337E+03  0.00000000000E+00 0.  1.
          1    1    3    3  501    0 -0.11702202858E+02 -0.26270080643E+02 -0.37259706752E+03  0.37370527614E+03  0.00000000000E+00 0.  1.
         -1    1    1    2    0  502  0.14385695756E+02  0.33992999017E+02 -0.45392973692E+03  0.45542801658E+03  0.00000000000E+00 0. -1.
<mgrwt>
<rscale>  1 0.30000000E+03</rscale>
<asrwt>0</asrwt>
<pdfrwt beam="1">  1       21 0.50920329E-02 0.30000000E+03</pdfrwt>
<pdfrwt beam="2">0</pdfrwt>
<totfact> 0.27922416E+04</totfact>
</mgrwt>
</event>
<event>
 6    1  0.1273846E-001  0.3000000E+03  0.7818608E-02  0.1093470E+00
         21   -1    0    0  501  502  0.00000000000E+00  0.00000000000E+00  0.36287171691E+01  0.36287171691E+01  0.00000000000E+00 0. -1.
         13   -1    0    0    0    0 -0.00000000000E+00 -0.00000000000E+00 -0.10000000000E+04  0.10000000000E+04  0.00000000000E+00 0.  1.
    9000005    2    1    2  501    0 -0.36272381783E+02  0.42419579355E+02 -0.68412599429E+03  0.68643441298E+03  0.69800336398E+01 0.  0.
         13    1    3    3    0    0 -0.33383725455E+02  0.37467806526E+02 -0.63361245446E+03  0.63559661115E+03  0.00000000000E+00 0.  1.
          1    1    3    3  501    0 -0.28886563281E+01  0.49517728292E+01 -0.50513539830E+02  0.50837801838E+02  0.00000000000E+00 0.  1.
         -1    1    1    2    0  502  0.36272381783E+02 -0.42419579355E+02 -0.31224528854E+03  0.31719430418E+03  0.00000000000E+00 0. -1.
<mgrwt>
<rscale>  1 0.30000000E+03</rscale>
<asrwt>0</asrwt>
<pdfrwt beam="1">  1       21 0.13195363E-01 0.30000000E+03</pdfrwt>
<pdfrwt beam="2">0</pdfrwt>
<totfact> 0.52125099E+03</totfact>
</mgrwt>
</event>
<event>
 6    1  0.1273846E-001  0.3000000E+03  0.7818608E-02  0.1093470E+00
         21   -1    0    0  501  502  0.00000000000E+00  0.00000000000E+00  0.18581836448E+01  0.18581836448E+01  0.00000000000E+00 0. -1.
         13   -1    0    0    0    0 -0.00000000000E+00 -0.00000000000E+00 -0.10000000000E+04  0.10000000000E+04  0.00000000000E+00 0.  1.
    9000005    2    1    2  501    0  0.45362334860E+01 -0.42585628166E+02 -0.55096197689E+03  0.55263226947E+03  0.30351511067E+01 0.  0.
         13    1    3    3    0    0  0.45526907291E+00 -0.18046392531E+02 -0.22730663526E+03  0.22802233659E+03  0.00000000000E+00 0.  1.
          3    1    3    3  501    0  0.40809644131E+01 -0.24539235635E+02 -0.32365534163E+03  0.32460993288E+03  0.00000000000E+00 0.  1.
         -3    1    1    2    0  502 -0.45362334860E+01  0.42585628166E+02 -0.44717983947E+03  0.44922591417E+03  0.00000000000E+00 0. -1.
<mgrwt>
<rscale>  1 0.30000000E+03</rscale>
<asrwt>0</asrwt>
<pdfrwt beam="1">  1       21 0.67570457E-02 0.30000000E+03</pdfrwt>
<pdfrwt beam="2">0</pdfrwt>
<totfact> 0.17156911E+04</totfact>
</mgrwt>
</event>
<event>
 6    1  0.1273846E-001  0.3000000E+03  0.7818608E-02  0.1093470E+00
         21   -1    0    0  501  502  0.00000000000E+00  0.00000000000E+00  0.10271453042E+01  0.10271453042E+01  0.00000000000E+00 0. -1.
         13   -1    0    0    0    0 -0.00000000000E+00 -0.00000000000E+00 -0.10000000000E+04  0.10000000000E+04  0.00000000000E+00 0.  1.
    9000005    2    1    2  501    0  0.23235526387E+02  0.20547364666E+02 -0.62221866491E+03  0.62299830593E+03  0.29560686672E+01 0.  0.
         13    1    3    3    0    0  0.11989206016E+02  0.88809815235E+01 -0.31269682849E+03  0.31305258255E+03  0.00000000000E+00 0.  1.
          3    1    3    3  501    0  0.11246320371E+02  0.11666383142E+02 -0.30952183642E+03  0.30994572338E+03  0.00000000000E+00 0.  1.
         -1    1    1    2    0  502 -0.23235526387E+02 -0.20547364666E+02 -0.37675418978E+03  0.37802883938E+03  0.00000000000E+00 0. -1.
<mgrwt>
<rscale>  1 0.30000000E+03</rscale>
<asrwt>0</asrwt>
<pdfrwt beam="1">  1       21 0.37350817E-02 0.30000000E+03</pdfrwt>
<pdfrwt beam="2">0</pdfrwt>
<totfact> 0.47182025E+04</totfact>
</mgrwt>
</event>
<event>
 6    1  0.1273846E-001  0.3000000E+03  0.7818608E-02  0.1093470E+00
         21   -1    0    0  501  502  0.00000000000E+00  0.00000000000E+00  0.16506296622E+01  0.16506296622E+01  0.00000000000E+00 0. -1.
         13   -1    0    0    0    0 -0.00000000000E+00 -0.00000000000E+00 -0.10000000000E+04  0.10000000000E+04  0.00000000000E+00 0.  1.
    9000005    2    1    2  501    0 -0.31522303647E+02 -0.23487000080E+02 -0.61726403904E+03  0.61854317146E+03  0.59553562139E+01 0.  0.
         13    1    3    3    0    0 -0.85524563731E+00 -0.46095446595E+00 -0.37283222517E+02  0.37295879201E+02  0.00000000000E+00 0.  1.
          3    1    3    3  501    0 -0.30667058009E+02 -0.23026045614E+02 -0.57998081652E+03  0.58124729226E+03  0.00000000000E+00 0.  1.
         -3    1    1    2    0  502  0.31522303647E+02  0.23487000080E+02 -0.38108533130E+03  0.38310745820E+03  0.00000000000E+00 0. -1.
<mgrwt>
<rscale>  1 0.30000000E+03</rscale>
<asrwt>0</asrwt>
<pdfrwt beam="1">  1       21 0.60023023E-02 0.30000000E+03</pdfrwt>
<pdfrwt beam="2">0</pdfrwt>
<totfact> 0.21057728E+04</totfact>
</mgrwt>
</event>
<event>
 6    1  0.1273846E-001  0.3000000E+03  0.7818608E-02  0.1093470E+00
         21   -1    0    0  501  502  0.00000000000E+00  0.00000000000E+00  0.15964158833E+01  0.15964158833E+01  0.00000000000E+00 0. -1.
         13   -1    0    0    0    0 -0.00000000000E+00 -0.00000000000E+00 -0.10000000000E+04  0.10000000000E+04  0.00000000000E+00 0.  1.
    9000005    2    1    2  501    0  0.33709547916E+02 -0.12886563946E+01 -0.75902416155E+03  0.75985171128E+03  0.10906468740E+02 0.  0.
         13    1    3    3    0    0  0.48605477900E+01  0.30765776364E+01 -0.83629796124E+02  0.83827400381E+02  0.00000000000E+00 0.  1.
          3    1    3    3  501    0  0.28849000126E+02 -0.43652340310E+01 -0.67539436543E+03  0.67602431090E+03  0.00000000000E+00 0.  1.
         -1    1    1    2    0  502 -0.33709547916E+02  0.12886563946E+01 -0.23937942256E+03  0.24174470460E+03  0.00000000000E+00 0. -1.
<mgrwt>
<rscale>  1 0.30000000E+03</rscale>
<asrwt>0</asrwt>
<pdfrwt beam="1">  1       21 0.58051609E-02 0.30000000E+03</pdfrwt>
<pdfrwt beam="2">0</pdfrwt>
<totfact> 0.22305380E+04</totfact>
</mgrwt>
</event>
<event>
 6    1  0.1273846E-001  0.3000000E+03  0.7818608E-02  0.1093470E+00
         21   -1    0    0  501  502  0.00000000000E+00  0.00000000000E+00  0.53115466172E+01  0.53115466172E+01  0.00000000000E+00 0. -1.
         13   -1    0    0    0    0 -0.00000000000E+00 -0.00000000000E+00 -0.10000000000E+04  0.10000000000E+04  0.00000000000E+00 0.  1.
    9000005    2    1    2  501    0 -0.68206485505E+01 -0.45841013492E+02 -0.88521093816E+03  0.88642821682E+03  0.29425785957E+01 0.  0.
         13    1    3    3    0    0 -0.51162377617E+01 -0.31302036054E+02 -0.58045517536E+03  0.58132108507E+03  0.00000000000E+00 0.  1.
          1    1    3    3  501    0 -0.17044107888E+01 -0.14538977438E+02 -0.30475576280E+03  0.30510713175E+03  0.00000000000E+00 0.  1.
         -3    1    1    2    0  502  0.68206485505E+01  0.45841013492E+02 -0.10947751522E+03  0.11888332980E+03  0.00000000000E+00 0. -1.
<mgrwt>
<rscale>  1 0.30000000E+03</rscale>
<asrwt>0</asrwt>
<pdfrwt beam="1">  1       21 0.19314756E-01 0.30000000E+03</pdfrwt>
<pdfrwt beam="2">0</pdfrwt>
<totfact> 0.25638990E+03</totfact>
</mgrwt>
</event>
<event>
 6    1  0.1273846E-001  0.3000000E+03  0.7818608E-02  0.1093470E+00
         21   -1    0    0  501  502  0.00000000000E+00  0.00000000000E+00  0.13506165139E+01  0.13506165139E+01  0.00000000000E+00 0. -1.
         13   -1    0    0    0    0 -0.00000000000E+00 -0.00000000000E+00 -0.10000000000E+04  0.10000000000E+04  0.00000000000E+00 0.  1.
    9000005    2    1    2  501    0 -0.11975802821E+02  0.32963150171E+02 -0.64615031480E+03  0.64711117412E+03  0.35571383809E+01 0.  0.
         13    1    3    3    0    0 -0.12102050345E+02  0.31720029370E+02 -0.62885974165E+03  0.62977551124E+03  0.00000000000E+00 0.  1.
          3    1    3    3  501    0  0.12624752407E+00  0.12431208011E+01 -0.17290573145E+02  0.17335662879E+02  0.00000000000E+00 0.  1.
         -3    1    1    2    0  502  0.11975802821E+02 -0.32963150171E+02 -0.35249906869E+03  0.35423944240E+03  0.00000000000E+00 0. -1.
<mgrwt>
<rscale>  1 0.30000000E+03</rscale>
<asrwt>0</asrwt>
<pdfrwt beam="1">  1       21 0.49113431E-02 0.30000000E+03</pdfrwt>
<pdfrwt beam="2">0</pdfrwt>
<totfact> 0.29696293E+04</totfact>
</mgrwt>
</event>
<event>
 6    1  0.1273846E-001  0.3000000E+03  0.7818608E-02  0.1093470E+00
         21   -1    0    0  501  502  0.00000000000E+00  0.00000000000E+00  0.29402765978E+01  0.29402765978E+01  0.00000000000E+00 0. -1.
         13   -1    0    0    0    0 -0.00000000000E+00 -0.00000000000E+00 -0.10000000000E+04  0.10000000000E+04  0.00000000000E+00 0.  1.
    9000005    2    1    2  501    0  0.18880626419E+02  0.34688333088E+02 -0.84194811762E+03  0.84287976069E+03  0.31463787869E+01 0.  0.
         13    1    3    3    0    0  0.14449482723E+01  0.45351589400E+01 -0.11196129752E+03  0.11206242763E+03  0.00000000000E+00 0.  1.
          1    1    3    3  501    0  0.17435678147E+02  0.30153174148E+02 -0.72998682010E+03  0.73081733306E+03  0.00000000000E+00 0.  1.
         -3    1    1    2    0  502 -0.18880626419E+02 -0.34688333088E+02 -0.15511160578E+03  0.16006051591E+03  0.00000000000E+00 0. -1.
<mgrwt>
<rscale>  1 0.30000000E+03</rscale>
<asrwt>0</asrwt>
<pdfrwt beam="1">  1       21 0.10691937E-01 0.30000000E+03</pdfrwt>
<pdfrwt beam="2">0</pdfrwt>
<totfact> 0.76318125E+03</totfact>
</mgrwt>
</event>
<event>
 6    1  0.1273846E-001  0.3000000E+03  0.7818608E-02  0.1093470E+00
         21   -1    0    0  501  502  0.00000000000E+00  0.00000000000E+00  0.76974042863E+01  0.76974042863E+01  0.00000000000E+00 0. -1.
         13   -1    0    0    0    0 -0.00000000000E+00 -0.00000000000E+00 -0.10000000000E+04  0.10000000000E+04  0.00000000000E+00 0.  1.
    9000005    2    1    2  501    0 -0.30732335493E+02 -0.27822743087E+02 -0.94013208709E+03  0.94106150219E+03  0.54615251747E+01 0.  0.
         13    1    3    3    0    0 -0.16724207209E+02 -0.11494985869E+02 -0.44776875493E+03  0.44822839234E+03  0.00000000000E+00 0.  1.
          3    1    3    3  501    0 -0.14008128284E+02 -0.16327757218E+02 -0.49236333215E+03  0.49283310985E+03  0.00000000000E+00 0.  1.
         -1    1    1    2    0  502  0.30732335493E+02  0.27822743087E+02 -0.52170508628E+02  0.66635902097E+02  0.00000000000E+00 0. -1.
<mgrwt>
<rscale>  1 0.30000000E+03</rscale>
<asrwt>0</asrwt>
<pdfrwt beam="1">  1       21 0.27990620E-01 0.30000000E+03</pdfrwt>
<pdfrwt beam="2">0</pdfrwt>
<totfact> 0.12482284E+03</totfact>
</mgrwt>
</event>
<event>
 6    1  0.1273846E-001  0.3000000E+03  0.7818608E-02  0.1093470E+00
         21   -1    0    0  501  502  0.00000000000E+00  0.00000000000E+00  0.14400891822E+02  0.14400891822E+02  0.00000000000E+00 0. -1.
         13   -1    0    0    0    0 -0.00000000000E+00 -0.00000000000E+00 -0.10000000000E+04  0.10000000000E+04  0.00000000000E+00 0.  1.
    9000005    2    1    2  501    0 -0.40354157436E+02 -0.32631555100E+02 -0.95011207071E+03  0.95153113567E+03  0.22975706538E+01 0.  0.
         13    1    3    3    0    0 -0.34938839032E+02 -0.28336280685E+02 -0.83715956599E+03  0.83836734562E+03  0.00000000000E+00 0.  1.
          1    1    3    3  501    0 -0.54153184040E+01 -0.42952744151E+01 -0.11295250471E+03  0.11316379004E+03  0.00000000000E+00 0.  1.
         -3    1    1    2    0  502  0.40354157436E+02  0.32631555100E+02 -0.35487037472E+02  0.62869756157E+02  0.00000000000E+00 0. -1.
<mgrwt>
<rscale>  1 0.30000000E+03</rscale>
<asrwt>0</asrwt>
<pdfrwt beam="1">  1       21 0.52366990E-01 0.30000000E+03</pdfrwt>
<pdfrwt beam="2">0</pdfrwt>
<totfact> 0.33970130E+02</totfact>
</mgrwt>
</event>
<event>
 6    1  0.1273846E-001  0.3000000E+03  0.7818608E-02  0.1093470E+00
         21   -1    0    0  501  502  0.00000000000E+00  0.00000000000E+00  0.14335281346E+01  0.14335281346E+01  0.00000000000E+00 0. -1.
         13   -1    0    0    0    0 -0.00000000000E+00 -0.00000000000E+00 -0.10000000000E+04  0.10000000000E+04  0.00000000000E+00 0.  1.
    9000005    2    1    2  501    0 -0.13763175977E+02  0.33653477250E+02 -0.63529428503E+03  0.63634632859E+03  0.39799212000E+01 0.  0.
         13    1    3    3    0    0 -0.72226348807E+01  0.22647104734E+02 -0.41623090166E+03  0.41690912836E+03  0.00000000000E+00 0.  1.
          1    1    3    3  501    0 -0.65405410968E+01  0.11006372516E+02 -0.21906338337E+03  0.21943720023E+03  0.00000000000E+00 0.  1.
         -3    1    1    2    0  502  0.13763175977E+02 -0.33653477250E+02 -0.36327218683E+03  0.36508719955E+03  0.00000000000E+00 0. -1.
<mgrwt>
<rscale>  1 0.30000000E+03</rscale>
<asrwt>0</asrwt>
<pdfrwt beam="1">  1       21 0.52128406E-02 0.30000000E+03</pdfrwt>
<pdfrwt beam="2">0</pdfrwt>
<totfact> 0.26826609E+04</totfact>
</mgrwt>
</event>
<event>
 6    1  0.1273846E-001  0.3000000E+03  0.7818608E-02  0.1093470E+00
         21   -1    0    0  501  502  0.00000000000E+00  0.00000000000E+00  0.13338377096E+01  0.13338377096E+01  0.00000000000E+00 0. -1.
         13   -1    0    0    0    0 -0.00000000000E+00 -0.00000000000E+00 -0.10000000000E+04  0.10000000000E+04  0.00000000000E+00 0.  1.
    9000005    2    1    2  501    0  0.94470247535E+01  0.34594355654E+02 -0.57829442641E+03  0.57943525742E+03  0.58956093435E+01 0.  0.
         13    1    3    3    0    0  0.86631457525E+01  0.27916838239E+02 -0.49949014329E+03  0.50034468438E+03  0.00000000000E+00 0.  1.
          1    1    3    3  501    0  0.78387900108E+00  0.66775174144E+01 -0.78804283125E+02  0.79090573041E+02  0.00000000000E+00 0.  1.
         -1    1    1    2    0  502 -0.94470247535E+01 -0.34594355654E+02 -0.42037173588E+03  0.42189858028E+03  0.00000000000E+00 0. -1.
<mgrwt>
<rscale>  1 0.30000000E+03</rscale>
<asrwt>0</asrwt>
<pdfrwt beam="1">  1       21 0.48503292E-02 0.30000000E+03</pdfrwt>
<pdfrwt beam="2">0</pdfrwt>
<totfact> 0.30335202E+04</totfact>
</mgrwt>
</event>
<event>
 6    1  0.1273846E-001  0.3000000E+03  0.7818608E-02  0.1093470E+00
         21   -1    0    0  501  502  0.00000000000E+00  0.00000000000E+00  0.10636589185E+01  0.10636589185E+01  0.00000000000E+00 0. -1.
         13   -1    0    0    0    0 -0.00000000000E+00 -0.00000000000E+00 -0.10000000000E+04  0.10000000000E+04  0.00000000000E+00 0.  1.
    9000005    2    1    2  501    0  0.17665720996E+02  0.25468691261E+02 -0.34978562368E+03  0.35117337139E+03  0.34673189752E+01 0.  0.
         13    1    3    3    0    0  0.10045121630E+02  0.16953831765E+02 -0.23135250963E+03  0.23219026808E+03  0.00000000000E+00 0.  1.
          3    1    3    3  501    0  0.76205993660E+01  0.85148594968E+01 -0.11843311406E+03  0.11898310331E+03  0.00000000000E+00 0.  1.
         -1    1    1    2    0  502 -0.17665720996E+02 -0.25468691261E+02 -0.64915071740E+03  0.64989028753E+03  0.00000000000E+00 0. -1.
<mgrwt>
<rscale>  1 0.30000000E+03</rscale>
<asrwt>0</asrwt>
<pdfrwt beam="1">  1       21 0.38678588E-02 0.30000000E+03</pdfrwt>
<pdfrwt beam="2">0</pdfrwt>
<totfact> 0.44492573E+04</totfact>
</mgrwt>
</event>
<event>
 6    1  0.1273846E-001  0.3000000E+03  0.7818608E-02  0.1093470E+00
         21   -1    0    0  501  502  0.00000000000E+00  0.00000000000E+00  0.13482346022E+01  0.13482346022E+01  0.00000000000E+00 0. -1.
         13   -1    0    0    0    0 -0.00000000000E+00 -0.00000000000E+00 -0.10000000000E+04  0.10000000000E+04  0.00000000000E+00 0.  1.
    9000005    2    1    2  501    0  0.17142515371E+02  0.31471658140E+02 -0.60481661747E+03  0.60588590411E+03  0.32026434944E+01 0.  0.
         13    1    3    3    0    0  0.12099028465E+02  0.24717913732E+02 -0.47339613940E+03  0.47419538857E+03  0.00000000000E+00 0.  1.
          3    1    3    3  501    0  0.50434869059E+01  0.67537444084E+01 -0.13142047808E+03  0.13169051553E+03  0.00000000000E+00 0.  1.
         -1    1    1    2    0  502 -0.17142515371E+02 -0.31471658140E+02 -0.39383514792E+03  0.39546233049E+03  0.00000000000E+00 0. -1.
<mgrwt>
<rscale>  1 0.30000000E+03</rscale>
<asrwt>0</asrwt>
<pdfrwt beam="1">  1       21 0.49026816E-02 0.30000000E+03</pdfrwt>
<pdfrwt beam="2">0</pdfrwt>
<totfact> 0.29785706E+04</totfact>
</mgrwt>
</event>
<event>
 6    1  0.1273846E-001  0.3000000E+03  0.7818608E-02  0.1093470E+00
         21   -1    0    0  501  502  0.00000000000E+00  0.00000000000E+00  0.22775428008E+01  0.22775428008E+01  0.00000000000E+00 0. -1.
         13   -1    0    0    0    0 -0.00000000000E+00 -0.00000000000E+00 -0.10000000000E+04  0.10000000000E+04  0.00000000000E+00 0.  1.
    9000005    2    1    2  501    0  0.46268773182E+02  0.20481961240E+01 -0.61846360675E+03  0.62020128061E+03  0.27205013311E+01 0.  0.
         13    1    3    3    0    0  0.10745428572E+02 -0.50693604555E+00 -0.15157799498E+03  0.15195923724E+03  0.00000000000E+00 0.  1.
          1    1    3    3  501    0  0.35523344610E+02  0.25551321696E+01 -0.46688561176E+03  0.46824204337E+03  0.00000000000E+00 0.  1.
         -1    1    1    2    0  502 -0.46268773182E+02 -0.20481961240E+01 -0.37925885045E+03  0.38207626219E+03  0.00000000000E+00 0. -1.
<mgrwt>
<rscale>  1 0.30000000E+03</rscale>
<asrwt>0</asrwt>
<pdfrwt beam="1">  1       21 0.82819913E-02 0.30000000E+03</pdfrwt>
<pdfrwt beam="2">0</pdfrwt>
<totfact> 0.12019033E+04</totfact>
</mgrwt>
</event>
<event>
 6    1  0.1273846E-001  0.3000000E+03  0.7818608E-02  0.1093470E+00
         21   -1    0    0  501  502  0.00000000000E+00  0.00000000000E+00  0.19666552180E+01  0.19666552180E+01  0.00000000000E+00 0. -1.
         13   -1    0    0    0    0 -0.00000000000E+00 -0.00000000000E+00 -0.10000000000E+04  0.10000000000E+04  0.00000000000E+00 0.  1.
    9000005    2    1    2  501    0  0.65171585782E+01 -0.30891896523E+02 -0.85056141271E+03  0.85115301732E+03  0.31558638366E+01 0.  0.
         13    1    3    3    0    0  0.57823641417E+01 -0.29897600692E+02 -0.80789823890E+03  0.80847193315E+03  0.00000000000E+00 0.  1.
          3    1    3    3  501    0  0.73479443644E+00 -0.99429583114E+00 -0.42663173811E+02  0.42681084179E+02  0.00000000000E+00 0.  1.
         -3    1    1    2    0  502 -0.65171585782E+01  0.30891896523E+02 -0.14747193207E+03  0.15081363789E+03  0.00000000000E+00 0. -1.
<mgrwt>
<rscale>  1 0.30000000E+03</rscale>
<asrwt>0</asrwt>
<pdfrwt beam="1">  1       21 0.71514886E-02 0.30000000E+03</pdfrwt>
<pdfrwt beam="2">0</pdfrwt>
<totfact> 0.15544614E+04</totfact>
</mgrwt>
</event>
<event>
 6    1  0.1273846E-001  0.3000000E+03  0.7818608E-02  0.1093470E+00
         21   -1    0    0  501  502  0.00000000000E+00  0.00000000000E+00  0.19422000371E+01  0.19422000371E+01  0.00000000000E+00 0. -1.
         13   -1    0    0    0    0 -0.00000000000E+00 -0.00000000000E+00 -0.10000000000E+04  0.10000000000E+04  0.00000000000E+00 0.  1.
    9000005    2    1    2  501    0  0.64590727477E+00 -0.36674102877E+02 -0.77618896542E+03  0.77706181681E+03  0.32171554887E+01 0.  0.
         13    1    3    3    0    0  0.15912398628E+01 -0.24720675456E+02 -0.54304413867E+03  0.54360884870E+03  0.00000000000E+00 0.  1.
          1    1    3    3  501    0 -0.94533258801E+00 -0.11953427421E+02 -0.23314482675E+03  0.23345296811E+03  0.00000000000E+00 0.  1.
         -1    1    1    2    0  502 -0.64590727477E+00  0.36674102877E+02 -0.22186883455E+03  0.22488038323E+03  0.00000000000E+00 0. -1.
<mgrwt>
<rscale>  1 0.30000000E+03</rscale>
<asrwt>0</asrwt>
<pdfrwt beam="1">  1       21 0.70625605E-02 0.30000000E+03</pdfrwt>
<pdfrwt beam="2">0</pdfrwt>
<totfact> 0.15887273E+04</totfact>
</mgrwt>
</event>
<event>
 6    1  0.1273846E-001  0.3000000E+03  0.7818608E-02  0.1093470E+00
         21   -1    0    0  501  502  0.00000000000E+00  0.00000000000E+00  0.19475745858E+01  0.19475745858E+01  0.00000000000E+00 0. -1.
         13   -1    0    0    0    0 -0.00000000000E+00 -0.00000000000E+00 -0.10000000000E+04  0.10000000000E+04  0.00000000000E+00 0.  1.
    9000005    2    1    2  501    0  0.13806633149E+02  0.32336406086E+02 -0.80133833477E+03  0.80211589608E+03  0.32430989818E+01 0.  0.
         13    1    3    3    0    0  0.84846705730E+01  0.21084692775E+02 -0.55042009028E+03  0.55088912649E+03  0.00000000000E+00 0.  1.
          1    1    3    3  501    0  0.53219625764E+01  0.11251713311E+02 -0.25091824449E+03  0.25122676958E+03  0.00000000000E+00 0.  1.
         -1    1    1    2    0  502 -0.13806633149E+02 -0.32336406086E+02 -0.19671409065E+03  0.19983167851E+03  0.00000000000E+00 0. -1.
<mgrwt>
<rscale>  1 0.30000000E+03</rscale>
<asrwt>0</asrwt>
<pdfrwt beam="1">  1       21 0.70821043E-02 0.30000000E+03</pdfrwt>
<pdfrwt beam="2">0</pdfrwt>
<totfact> 0.15810985E+04</totfact>
</mgrwt>
</event>
<event>
 6    1  0.1273846E-001  0.3000000E+03  0.7818608E-02  0.1093470E+00
         21   -1    0    0  501  502  0.00000000000E+00  0.00000000000E+00  0.98653540566E+00  0.98653540566E+00  0.00000000000E+00 0. -1.
         13   -1    0    0    0    0 -0.00000000000E+00 -0.00000000000E+00 -0.10000000000E+04  0.10000000000E+04  0.00000000000E+00 0.  1.
    9000005    2    1    2  501    0 -0.17206050836E+02 -0.24792823722E+02 -0.36805886944E+03  0.36931064268E+03  0.35053011564E+01 0.  0.
         13    1    3    3    0    0 -0.69634663042E+01 -0.11747314321E+02 -0.14879482943E+03  0.14942018111E+03  0.00000000000E+00 0.  1.
          1    1    3    3  501    0 -0.10242584532E+02 -0.13045509401E+02 -0.21926404001E+03  0.21989046158E+03  0.00000000000E+00 0.  1.
         -1    1    1    2    0  502  0.17206050836E+02  0.24792823722E+02 -0.63095459516E+03  0.63167589272E+03  0.00000000000E+00 0. -1.
<mgrwt>
<rscale>  1 0.30000000E+03</rscale>
<asrwt>0</asrwt>
<pdfrwt beam="1">  1       21 0.35874090E-02 0.30000000E+03</pdfrwt>
<pdfrwt beam="2">0</pdfrwt>
<totfact> 0.50486052E+04</totfact>
</mgrwt>
</event>
<event>
 6    1  0.1273846E-001  0.3000000E+03  0.7818608E-02  0.1093470E+00
         21   -1    0    0  501  502  0.00000000000E+00  0.00000000000E+00  0.12130170569E+01  0.12130170569E+01  0.00000000000E+00 0. -1.
         13   -1    0    0    0    0 -0.00000000000E+00 -0.00000000000E+00 -0.10000000000E+04  0.10000000000E+04  0.00000000000E+00 0.  1.
    9000005    2    1    2  501    0 -0.28285753505E+02 -0.15921905327E+02 -0.32241396524E+03  0.32406159381E+03  0.34001005822E+01 0.  0.
         13    1    3    3    0    0 -0.10539099140E+02 -0.69941309341E+01 -0.13935129269E+03  0.13992416965E+03  0.00000000000E+00 0.  1.
          3    1    3    3  501    0 -0.17746654366E+02 -0.89277743934E+01 -0.18306267254E+03  0.18413742416E+03  0.00000000000E+00 0.  1.
         -1    1    1    2    0  502  0.28285753505E+02  0.15921905327E+02 -0.67637301771E+03  0.67715142325E+03  0.00000000000E+00 0. -1.
<mgrwt>
<rscale>  1 0.30000000E+03</rscale>
<asrwt>0</asrwt>
<pdfrwt beam="1">  1       21 0.44109804E-02 0.30000000E+03</pdfrwt>
<pdfrwt beam="2">0</pdfrwt>
<totfact> 0.35645573E+04</totfact>
</mgrwt>
</event>
<event>
 6    1  0.1273846E-001  0.3000000E+03  0.7818608E-02  0.1093470E+00
         21   -1    0    0  501  502  0.00000000000E+00  0.00000000000E+00  0.12068525170E+01  0.12068525170E+01  0.00000000000E+00 0. -1.
         13   -1    0    0    0    0 -0.00000000000E+00 -0.00000000000E+00 -0.10000000000E+04  0.10000000000E+04  0.00000000000E+00 0.  1.
    9000005    2    1    2  501    0 -0.34539391723E+02  0.25347234090E-01 -0.45842731788E+03  0.45973829385E+03  0.32745732155E+01 0.  0.
         13    1    3    3    0    0 -0.68260305906E+01 -0.52508392407E+00 -0.75993824122E+02  0.76301583938E+02  0.00000000000E+00 0.  1.
          3    1    3    3  501    0 -0.27713361133E+02  0.55043115816E+00 -0.38243349376E+03  0.38343670991E+03  0.00000000000E+00 0.  1.
         -3    1    1    2    0  502  0.34539391723E+02 -0.25347234090E-01 -0.54036582960E+03  0.54146855867E+03  0.00000000000E+00 0. -1.
<mgrwt>
<rscale>  1 0.30000000E+03</rscale>
<asrwt>0</asrwt>
<pdfrwt beam="1">  1       21 0.43885639E-02 0.30000000E+03</pdfrwt>
<pdfrwt beam="2">0</pdfrwt>
<totfact> 0.35954548E+04</totfact>
</mgrwt>
</event>
<event>
 6    1  0.1273846E-001  0.3000000E+03  0.7818608E-02  0.1093470E+00
         21   -1    0    0  501  502  0.00000000000E+00  0.00000000000E+00  0.38551461252E+01  0.38551461252E+01  0.00000000000E+00 0. -1.
         13   -1    0    0    0    0 -0.00000000000E+00 -0.00000000000E+00 -0.10000000000E+04  0.10000000000E+04  0.00000000000E+00 0.  1.
    9000005    2    1    2  501    0 -0.29906254612E+02  0.53279283530E+02 -0.58592755149E+03  0.58911269436E+03  0.30991846191E+01 0.  0.
         13    1    3    3    0    0 -0.27228168712E+02  0.47134261942E+02 -0.52809113725E+03  0.53088912313E+03  0.00000000000E+00 0.  1.
          1    1    3    3  501    0 -0.26780858998E+01  0.61450215882E+01 -0.57836414241E+02  0.58223571229E+02  0.00000000000E+00 0.  1.
         -3    1    1    2    0  502  0.29906254612E+02 -0.53279283530E+02 -0.41021730239E+03  0.41474245177E+03  0.00000000000E+00 0. -1.
<mgrwt>
<rscale>  1 0.30000000E+03</rscale>
<asrwt>0</asrwt>
<pdfrwt beam="1">  1       21 0.14018743E-01 0.30000000E+03</pdfrwt>
<pdfrwt beam="2">0</pdfrwt>
<totfact> 0.46651944E+03</totfact>
</mgrwt>
</event>
<event>
 6    1  0.1273846E-001  0.3000000E+03  0.7818608E-02  0.1093470E+00
         21   -1    0    0  501  502  0.00000000000E+00  0.00000000000E+00  0.13448351082E+01  0.13448351082E+01  0.00000000000E+00 0. -1.
         13   -1    0    0    0    0 -0.00000000000E+00 -0.00000000000E+00 -0.10000000000E+04  0.10000000000E+04  0.00000000000E+00 0.  1.
    9000005    2    1    2  501    0  0.26500625508E+02  0.21798487940E+02 -0.67398524148E+03  0.67486663309E+03  0.33777933991E+01 0.  0.
         13    1    3    3    0    0  0.19439531655E+02  0.17710326972E+02 -0.50357324337E+03  0.50425941985E+03  0.00000000000E+00 0.  1.
          1    1    3    3  501    0  0.70610938535E+01  0.40881609677E+01 -0.17041199811E+03  0.17060721323E+03  0.00000000000E+00 0.  1.
         -3    1    1    2    0  502 -0.26500625508E+02 -0.21798487940E+02 -0.32466992341E+03  0.32647820202E+03  0.00000000000E+00 0. -1.
<mgrwt>
<rscale>  1 0.30000000E+03</rscale>
<asrwt>0</asrwt>
<pdfrwt beam="1">  1       21 0.48903198E-02 0.30000000E+03</pdfrwt>
<pdfrwt beam="2">0</pdfrwt>
<totfact> 0.29914047E+04</totfact>
</mgrwt>
</event>
<event>
 6    1  0.1273846E-001  0.3000000E+03  0.7818608E-02  0.1093470E+00
         21   -1    0    0  501  502  0.00000000000E+00  0.00000000000E+00  0.16426806693E+01  0.16426806693E+01  0.00000000000E+00 0. -1.
         13   -1    0    0    0    0 -0.00000000000E+00 -0.00000000000E+00 -0.10000000000E+04  0.10000000000E+04  0.00000000000E+00 0.  1.
    9000005    2    1    2  501    0 -0.39936895848E+02  0.55994569207E+01 -0.54035032547E+03  0.54186369464E+03  0.33881804656E+01 0.  0.
         13    1    3    3    0    0 -0.13168486240E+02  0.34095969499E+00 -0.18332697349E+03  0.18379963138E+03  0.00000000000E+00 0.  1.
          3    1    3    3  501    0 -0.26768409608E+02  0.52584972257E+01 -0.35702335197E+03  0.35806406326E+03  0.00000000000E+00 0.  1.
         -1    1    1    2    0  502  0.39936895848E+02 -0.55994569207E+01 -0.45800699386E+03  0.45977898603E+03  0.00000000000E+00 0. -1.
<mgrwt>
<rscale>  1 0.30000000E+03</rscale>
<asrwt>0</asrwt>
<pdfrwt beam="1">  1       21 0.59733968E-02 0.30000000E+03</pdfrwt>
<pdfrwt beam="2">0</pdfrwt>
<totfact> 0.21233761E+04</totfact>
</mgrwt>
</event>
<event>
 6    1  0.1273846E-001  0.3000000E+03  0.7818608E-02  0.1093470E+00
         21   -1    0    0  501  502  0.00000000000E+00  0.00000000000E+00  0.31437496790E+01  0.31437496790E+01  0.00000000000E+00 0. -1.
         13   -1    0    0    0    0 -0.00000000000E+00 -0.00000000000E+00 -0.10000000000E+04  0.10000000000E+04  0.00000000000E+00 0.  1.
    9000005    2    1    2  501    0  0.34533839495E+02  0.29964532029E+02 -0.78804805291E+03  0.78938846306E+03  0.48941468253E+01 0.  0.
         13    1    3    3    0    0  0.56246647619E+01  0.53338834883E+01 -0.16752728497E+03  0.16770652455E+03  0.00000000000E+00 0.  1.
          1    1    3    3  501    0  0.28909174733E+02  0.24630648541E+02 -0.62052076794E+03  0.62168193851E+03  0.00000000000E+00 0.  1.
         -3    1    1    2    0  502 -0.34533839495E+02 -0.29964532029E+02 -0.20880819742E+03  0.21375528662E+03  0.00000000000E+00 0. -1.
<mgrwt>
<rscale>  1 0.30000000E+03</rscale>
<asrwt>0</asrwt>
<pdfrwt beam="1">  1       21 0.11431841E-01 0.30000000E+03</pdfrwt>
<pdfrwt beam="2">0</pdfrwt>
<totfact> 0.67658027E+03</totfact>
</mgrwt>
</event>
<event>
 6    1  0.1273846E-001  0.3000000E+03  0.7818608E-02  0.1093470E+00
         21   -1    0    0  501  502  0.00000000000E+00  0.00000000000E+00  0.16531140287E+01  0.16531140287E+01  0.00000000000E+00 0. -1.
         13   -1    0    0    0    0 -0.00000000000E+00 -0.00000000000E+00 -0.10000000000E+04  0.10000000000E+04  0.00000000000E+00 0.  1.
    9000005    2    1    2  501    0 -0.81451302178E+01  0.37494826367E+02 -0.66286664911E+03  0.66398583033E+03  0.35753652670E+01 0.  0.
         13    1    3    3    0    0  0.83981063688E-01  0.26394991897E+01 -0.35767118403E+02  0.35864477796E+02  0.00000000000E+00 0.  1.
          3    1    3    3  501    0 -0.82291112815E+01  0.34855327177E+02 -0.62709953070E+03  0.62812135254E+03  0.00000000000E+00 0.  1.
         -3    1    1    2    0  502  0.81451302178E+01 -0.37494826367E+02 -0.33548023687E+03  0.33766728370E+03  0.00000000000E+00 0. -1.
<mgrwt>
<rscale>  1 0.30000000E+03</rscale>
<asrwt>0</asrwt>
<pdfrwt beam="1">  1       21 0.60113364E-02 0.30000000E+03</pdfrwt>
<pdfrwt beam="2">0</pdfrwt>
<totfact> 0.21003176E+04</totfact>
</mgrwt>
</event>
<event>
 6    1  0.1273846E-001  0.3000000E+03  0.7818608E-02  0.1093470E+00
         21   -1    0    0  501  502  0.00000000000E+00  0.00000000000E+00  0.26131192894E+01  0.26131192894E+01  0.00000000000E+00 0. -1.
         13   -1    0    0    0    0 -0.00000000000E+00 -0.00000000000E+00 -0.10000000000E+04  0.10000000000E+04  0.00000000000E+00 0.  1.
    9000005    2    1    2  501    0  0.10409252041E+02 -0.34699487710E+02 -0.85095165192E+03  0.85176324953E+03  0.83374078265E+01 0.  0.
         13    1    3    3    0    0  0.24431075664E+01 -0.13962938220E+02 -0.42041130750E+03  0.42065021086E+03  0.00000000000E+00 0.  1.
          1    1    3    3  501    0  0.79661444751E+01 -0.20736549490E+02 -0.43054034442E+03  0.43111303867E+03  0.00000000000E+00 0.  1.
         -3    1    1    2    0  502 -0.10409252041E+02  0.34699487710E+02 -0.14643522879E+03  0.15084986976E+03  0.00000000000E+00 0. -1.
<mgrwt>
<rscale>  1 0.30000000E+03</rscale>
<asrwt>0</asrwt>
<pdfrwt beam="1">  1       21 0.95022720E-02 0.30000000E+03</pdfrwt>
<pdfrwt beam="2">0</pdfrwt>
<totfact> 0.94237087E+03</totfact>
</mgrwt>
</event>
<event>
 6    1  0.1273846E-001  0.3000000E+03  0.7818608E-02  0.1093470E+00
         21   -1    0    0  501  502  0.00000000000E+00  0.00000000000E+00  0.23539965235E+01  0.23539965235E+01  0.00000000000E+00 0. -1.
         13   -1    0    0    0    0 -0.00000000000E+00 -0.00000000000E+00 -0.10000000000E+04  0.10000000000E+04  0.00000000000E+00 0.  1.
    9000005    2    1    2  501    0 -0.23422817092E+02  0.42236248700E+02 -0.45941044124E+03  0.46195594923E+03  0.35800058631E+01 0.  0.
         13    1    3    3    0    0 -0.77374993692E+01  0.16999585838E+02 -0.18620836285E+03  0.18714275089E+03  0.00000000000E+00 0.  1.
          1    1    3    3  501    0 -0.15685317723E+02  0.25236662862E+02 -0.27320207839E+03  0.27481319834E+03  0.00000000000E+00 0.  1.
         -3    1    1    2    0  502  0.23422817092E+02 -0.42236248700E+02 -0.53823556224E+03  0.54039804730E+03  0.00000000000E+00 0. -1.
<mgrwt>
<rscale>  1 0.30000000E+03</rscale>
<asrwt>0</asrwt>
<pdfrwt beam="1">  1       21 0.85600054E-02 0.30000000E+03</pdfrwt>
<pdfrwt beam="2">0</pdfrwt>
<totfact> 0.11339683E+04</totfact>
</mgrwt>
</event>
<event>
 6    1  0.1273846E-001  0.3000000E+03  0.7818608E-02  0.1093470E+00
         21   -1    0    0  501  502  0.00000000000E+00  0.00000000000E+00  0.26488730172E+01  0.26488730172E+01  0.00000000000E+00 0. -1.
         13   -1    0    0    0    0 -0.00000000000E+00 -0.00000000000E+00 -0.10000000000E+04  0.10000000000E+04  0.00000000000E+00 0.  1.
    9000005    2    1    2  501    0 -0.45776351003E+02  0.13537983593E+02 -0.68492595260E+03  0.68659786305E+03  0.37833442356E+01 0.  0.
         13    1    3    3    0    0 -0.25269971067E+02  0.71766232069E+01 -0.35000163275E+03  0.35098606566E+03  0.00000000000E+00 0.  1.
          1    1    3    3  501    0 -0.20506379936E+02  0.63613603860E+01 -0.33492431985E+03  0.33561179739E+03  0.00000000000E+00 0.  1.
         -3    1    1    2    0  502  0.45776351003E+02 -0.13537983593E+02 -0.31242517439E+03  0.31605100997E+03  0.00000000000E+00 0. -1.
<mgrwt>
<rscale>  1 0.30000000E+03</rscale>
<asrwt>0</asrwt>
<pdfrwt beam="1">  1       21 0.96322858E-02 0.30000000E+03</pdfrwt>
<pdfrwt beam="2">0</pdfrwt>
<totfact> 0.91981830E+03</totfact>
</mgrwt>
</event>
<event>
 6    1  0.1273846E-001  0.3000000E+03  0.7818608E-02  0.1093470E+00
         21   -1    0    0  501  502  0.00000000000E+00  0.00000000000E+00  0.46142744443E+01  0.46142744443E+01  0.00000000000E+00 0. -1.
         13   -1    0    0    0    0 -0.00000000000E+00 -0.00000000000E+00 -0.10000000000E+04  0.10000000000E+04  0.00000000000E+00 0.  1.
    9000005    2    1    2  501    0  0.24714131130E+02 -0.29911446311E+02 -0.90988006998E+03  0.91071698996E+03  0.42674533157E+01 0.  0.
         13    1    3    3    0    0  0.38135460028E+01 -0.25036530030E+01 -0.11106630423E+03  0.11115995388E+03  0.00000000000E+00 0.  1.
          1    1    3    3  501    0  0.20900585127E+02 -0.27407793308E+02 -0.79881376575E+03  0.79955703608E+03  0.00000000000E+00 0.  1.
         -1    1    1    2    0  502 -0.24714131130E+02  0.29911446311E+02 -0.85505655571E+02  0.93897284479E+02  0.00000000000E+00 0. -1.
<mgrwt>
<rscale>  1 0.30000000E+03</rscale>
<asrwt>0</asrwt>
<pdfrwt beam="1">  1       21 0.16779215E-01 0.30000000E+03</pdfrwt>
<pdfrwt beam="2">0</pdfrwt>
<totfact> 0.33423151E+03</totfact>
</mgrwt>
</event>
<event>
 6    1  0.1273846E-001  0.3000000E+03  0.7818608E-02  0.1093470E+00
         21   -1    0    0  501  502  0.00000000000E+00  0.00000000000E+00  0.10121950000E+01  0.10121950000E+01  0.00000000000E+00 0. -1.
         13   -1    0    0    0    0 -0.00000000000E+00 -0.00000000000E+00 -0.10000000000E+04  0.10000000000E+04  0.00000000000E+00 0.  1.
    9000005    2    1    2  501    0  0.31325185076E+02 -0.69309426188E+00 -0.54828638435E+03  0.54922295412E+03  0.67931191722E+01 0.  0.
         13    1    3    3    0    0  0.31465477018E+02 -0.63001968491E+00 -0.54795016574E+03  0.54885322018E+03  0.00000000000E+00 0.  1.
          1    1    3    3  501    0 -0.14029194173E+00 -0.63074576968E-01 -0.33621860977E+00  0.36973393776E+00  0.00000000000E+00 0.  1.
         -1    1    1    2    0  502 -0.31325185076E+02  0.69309426188E+00 -0.45070142065E+03  0.45178924088E+03  0.00000000000E+00 0. -1.
<mgrwt>
<rscale>  1 0.30000000E+03</rscale>
<asrwt>0</asrwt>
<pdfrwt beam="1">  1       21 0.36807169E-02 0.30000000E+03</pdfrwt>
<pdfrwt beam="2">0</pdfrwt>
<totfact> 0.48357664E+04</totfact>
</mgrwt>
</event>
<event>
 6    1  0.1273846E-001  0.3000000E+03  0.7818608E-02  0.1093470E+00
         21   -1    0    0  501  502  0.00000000000E+00  0.00000000000E+00  0.23529623175E+01  0.23529623175E+01  0.00000000000E+00 0. -1.
         13   -1    0    0    0    0 -0.00000000000E+00 -0.00000000000E+00 -0.10000000000E+04  0.10000000000E+04  0.00000000000E+00 0.  1.
    9000005    2    1    2  501    0  0.27092861570E+02  0.37737550606E+02 -0.64142777008E+03  0.64311722845E+03  0.34697881329E+01 0.  0.
         13    1    3    3    0    0  0.91235801495E+00  0.26782612297E+01 -0.39111693971E+02  0.39213901688E+02  0.00000000000E+00 0.  1.
          1    1    3    3  501    0  0.26180503555E+02  0.35059289376E+02 -0.60231607611E+03  0.60390332676E+03  0.00000000000E+00 0.  1.
         -1    1    1    2    0  502 -0.27092861570E+02 -0.37737550606E+02 -0.35621926760E+03  0.35923573387E+03  0.00000000000E+00 0. -1.
<mgrwt>
<rscale>  1 0.30000000E+03</rscale>
<asrwt>0</asrwt>
<pdfrwt beam="1">  1       21 0.85562447E-02 0.30000000E+03</pdfrwt>
<pdfrwt beam="2">0</pdfrwt>
<totfact> 0.11348478E+04</totfact>
</mgrwt>
</event>
<event>
 6    1  0.1273846E-001  0.3000000E+03  0.7818608E-02  0.1093470E+00
         21   -1    0    0  501  502  0.00000000000E+00  0.00000000000E+00  0.15821943154E+01  0.15821943154E+01  0.00000000000E+00 0. -1.
         13   -1    0    0    0    0 -0.00000000000E+00 -0.00000000000E+00 -0.10000000000E+04  0.10000000000E+04  0.00000000000E+00 0.  1.
    9000005    2    1    2  501    0  0.25377007862E+02 -0.18376427202E+02 -0.19892174715E+03  0.20147243109E+03  0.62923281268E+01 0.  0.
         13    1    3    3    0    0  0.15667454928E+02 -0.75960034040E+01 -0.10363769817E+03  0.10509015602E+03  0.00000000000E+00 0.  1.
          3    1    3    3  501    0  0.97095529341E+01 -0.10780423798E+02 -0.95284048984E+02  0.96382275063E+02  0.00000000000E+00 0.  1.
         -1    1    1    2    0  502 -0.25377007862E+02  0.18376427202E+02 -0.79949605853E+03  0.80010976323E+03  0.00000000000E+00 0. -1.
<mgrwt>
<rscale>  1 0.30000000E+03</rscale>
<asrwt>0</asrwt>
<pdfrwt beam="1">  1       21 0.57534460E-02 0.30000000E+03</pdfrwt>
<pdfrwt beam="2">0</pdfrwt>
<totfact> 0.22651665E+04</totfact>
</mgrwt>
</event>
<event>
 6    1  0.1273846E-001  0.3000000E+03  0.7818608E-02  0.1093470E+00
         21   -1    0    0  501  502  0.00000000000E+00  0.00000000000E+00  0.98033282467E+00  0.98033282467E+00  0.00000000000E+00 0. -1.
         13   -1    0    0    0    0 -0.00000000000E+00 -0.00000000000E+00 -0.10000000000E+04  0.10000000000E+04  0.00000000000E+00 0.  1.
    9000005    2    1    2  501    0 -0.27267409054E+02  0.15168536809E+02 -0.49133760928E+03  0.49234031472E+03  0.35697483498E+01 0.  0.
         13    1    3    3    0    0 -0.21883224783E+02  0.10643218909E+02 -0.37066834138E+03  0.37146624737E+03  0.00000000000E+00 0.  1.
          1    1    3    3  501    0 -0.53841842711E+01  0.45253178996E+01 -0.12066926789E+03  0.12087406735E+03  0.00000000000E+00 0.  1.
         -3    1    1    2    0  502  0.27267409054E+02 -0.15168536809E+02 -0.50768205790E+03  0.50864001811E+03  0.00000000000E+00 0. -1.
<mgrwt>
<rscale>  1 0.30000000E+03</rscale>
<asrwt>0</asrwt>
<pdfrwt beam="1">  1       21 0.35648542E-02 0.30000000E+03</pdfrwt>
<pdfrwt beam="2">0</pdfrwt>
<totfact> 0.51022753E+04</totfact>
</mgrwt>
</event>
<event>
 6    1  0.1273846E-001  0.3000000E+03  0.7818608E-02  0.1093470E+00
         21   -1    0    0  501  502  0.00000000000E+00  0.00000000000E+00  0.32168201803E+01  0.32168201803E+01  0.00000000000E+00 0. -1.
         13   -1    0    0    0    0 -0.00000000000E+00 -0.00000000000E+00 -0.10000000000E+04  0.10000000000E+04  0.00000000000E+00 0.  1.
    9000005    2    1    2  501    0 -0.12554815177E+02 -0.41412851175E+02 -0.82064285963E+03  0.82183859650E+03  0.95565694274E+01 0.  0.
         13    1    3    3    0    0 -0.42299938951E+01 -0.10860385060E+02 -0.15193208068E+03  0.15237846945E+03  0.00000000000E+00 0.  1.
          1    1    3    3  501    0 -0.83248212821E+01 -0.30552466115E+02 -0.66871077895E+03  0.66946012705E+03  0.00000000000E+00 0.  1.
         -1    1    1    2    0  502  0.12554815177E+02  0.41412851175E+02 -0.17614032019E+03  0.18137822368E+03  0.00000000000E+00 0. -1.
<mgrwt>
<rscale>  1 0.30000000E+03</rscale>
<asrwt>0</asrwt>
<pdfrwt beam="1">  1       21 0.11697553E-01 0.30000000E+03</pdfrwt>
<pdfrwt beam="2">0</pdfrwt>
<totfact> 0.64905505E+03</totfact>
</mgrwt>
</event>
<event>
 6    1  0.1273846E-001  0.3000000E+03  0.7818608E-02  0.1093470E+00
         21   -1    0    0  501  502  0.00000000000E+00  0.00000000000E+00  0.18436845083E+01  0.18436845083E+01  0.00000000000E+00 0. -1.
         13   -1    0    0    0    0 -0.00000000000E+00 -0.00000000000E+00 -0.10000000000E+04  0.10000000000E+04  0.00000000000E+00 0.  1.
    9000005    2    1    2  501    0  0.16215037394E+02 -0.35789676699E+02 -0.70014286892E+03  0.70125119835E+03  0.30623348819E+01 0.  0.
         13    1    3    3    0    0  0.64034076272E+01 -0.11767327770E+02 -0.25786202355E+03  0.25820979227E+03  0.00000000000E+00 0.  1.
          1    1    3    3  501    0  0.98116297667E+01 -0.24022348930E+02 -0.44228084536E+03  0.44304140608E+03  0.00000000000E+00 0.  1.
         -3    1    1    2    0  502 -0.16215037394E+02  0.35789676699E+02 -0.29801344657E+03  0.30059248616E+03  0.00000000000E+00 0. -1.
<mgrwt>
<rscale>  1 0.30000000E+03</rscale>
<asrwt>0</asrwt>
<pdfrwt beam="1">  1       21 0.67043214E-02 0.30000000E+03</pdfrwt>
<pdfrwt beam="2">0</pdfrwt>
<totfact> 0.17391716E+04</totfact>
</mgrwt>
</event>
<event>
 6    1  0.1273846E-001  0.3000000E+03  0.7818608E-02  0.1093470E+00
         21   -1    0    0  501  502  0.00000000000E+00  0.00000000000E+00  0.15756642912E+01  0.15756642912E+01  0.00000000000E+00 0. -1.
         13   -1    0    0    0    0 -0.00000000000E+00 -0.00000000000E+00 -0.10000000000E+04  0.10000000000E+04  0.00000000000E+00 0.  1.
    9000005    2    1    2  501    0  0.12536908882E-01  0.31076135864E+02 -0.81017982869E+03  0.81078331434E+03  0.35357626266E+01 0.  0.
         13    1    3    3    0    0 -0.45670931639E+00  0.26661963179E+02 -0.66154200856E+03  0.66207922332E+03  0.00000000000E+00 0.  1.
          1    1    3    3  501    0  0.46924622528E+00  0.44141726850E+01 -0.14863782013E+03  0.14870409102E+03  0.00000000000E+00 0.  1.
         -3    1    1    2    0  502 -0.12536908882E-01 -0.31076135864E+02 -0.18824450702E+03  0.19079234995E+03  0.00000000000E+00 0. -1.
<mgrwt>
<rscale>  1 0.30000000E+03</rscale>
<asrwt>0</asrwt>
<pdfrwt beam="1">  1       21 0.57297004E-02 0.30000000E+03</pdfrwt>
<pdfrwt beam="2">0</pdfrwt>
<totfact> 0.22813428E+04</totfact>
</mgrwt>
</event>
<event>
 6    1  0.1273846E-001  0.3000000E+03  0.7818608E-02  0.1093470E+00
         21   -1    0    0  501  502  0.00000000000E+00  0.00000000000E+00  0.14673345035E+01  0.14673345035E+01  0.00000000000E+00 0. -1.
         13   -1    0    0    0    0 -0.00000000000E+00 -0.00000000000E+00 -0.10000000000E+04  0.10000000000E+04  0.00000000000E+00 0.  1.
    9000005    2    1    2  501    0 -0.26967956129E+02  0.13388955177E+02 -0.80827603158E+03  0.80884303300E+03  0.32208749815E+01 0.  0.
         13    1    3    3    0    0 -0.77406772988E+01  0.40763513115E+01 -0.27540748277E+03  0.27554639589E+03  0.00000000000E+00 0.  1.
          1    1    3    3  501    0 -0.19227278830E+02  0.93126038658E+01 -0.53286854881E+03  0.53329663711E+03  0.00000000000E+00 0.  1.
         -1    1    1    2    0  502  0.26967956129E+02 -0.13388955177E+02 -0.19025663392E+03  0.19262430150E+03  0.00000000000E+00 0. -1.
<mgrwt>
<rscale>  1 0.30000000E+03</rscale>
<asrwt>0</asrwt>
<pdfrwt beam="1">  1       21 0.53357731E-02 0.30000000E+03</pdfrwt>
<pdfrwt beam="2">0</pdfrwt>
<totfact> 0.25778498E+04</totfact>
</mgrwt>
</event>
<event>
 6    1  0.1273846E-001  0.3000000E+03  0.7818608E-02  0.1093470E+00
         21   -1    0    0  501  502  0.00000000000E+00  0.00000000000E+00  0.97098664536E+00  0.97098664536E+00  0.00000000000E+00 0. -1.
         13   -1    0    0    0    0 -0.00000000000E+00 -0.00000000000E+00 -0.10000000000E+04  0.10000000000E+04  0.00000000000E+00 0.  1.
    9000005    2    1    2  501    0 -0.71356215455E+01  0.30118349519E+02 -0.47378355655E+03  0.47481433510E+03  0.44454792470E+01 0.  0.
         13    1    3    3    0    0 -0.31268492348E+01  0.89240388296E+01 -0.17310069132E+03  0.17335877535E+03  0.00000000000E+00 0.  1.
          3    1    3    3  501    0 -0.40087723107E+01  0.21194310689E+02 -0.30068286523E+03  0.30145555975E+03  0.00000000000E+00 0.  1.
         -1    1    1    2    0  502  0.71356215455E+01 -0.30118349519E+02 -0.52524545680E+03  0.52615665154E+03  0.00000000000E+00 0. -1.
<mgrwt>
<rscale>  1 0.30000000E+03</rscale>
<asrwt>0</asrwt>
<pdfrwt beam="1">  1       21 0.35308680E-02 0.30000000E+03</pdfrwt>
<pdfrwt beam="2">0</pdfrwt>
<totfact> 0.51848590E+04</totfact>
</mgrwt>
</event>
<event>
 6    1  0.1273846E-001  0.3000000E+03  0.7818608E-02  0.1093470E+00
         21   -1    0    0  501  502  0.00000000000E+00  0.00000000000E+00  0.17995155307E+01  0.17995155307E+01  0.00000000000E+00 0. -1.
         13   -1    0    0    0    0 -0.00000000000E+00 -0.00000000000E+00 -0.10000000000E+04  0.10000000000E+04  0.00000000000E+00 0.  1.
    9000005    2    1    2  501    0 -0.36419510025E+02 -0.21451521227E+02 -0.47604545561E+03  0.47793653474E+03  0.41841325010E+01 0.  0.
         13    1    3    3    0    0 -0.20704229664E+02 -0.14374721694E+02 -0.27327559488E+03  0.27443550883E+03  0.00000000000E+00 0.  1.
          1    1    3    3  501    0 -0.15715280361E+02 -0.70767995331E+01 -0.20276986073E+03  0.20350102591E+03  0.00000000000E+00 0.  1.
         -3    1    1    2    0  502  0.36419510025E+02  0.21451521227E+02 -0.52215502886E+03  0.52386298079E+03  0.00000000000E+00 0. -1.
<mgrwt>
<rscale>  1 0.30000000E+03</rscale>
<asrwt>0</asrwt>
<pdfrwt beam="1">  1       21 0.65437066E-02 0.30000000E+03</pdfrwt>
<pdfrwt beam="2">0</pdfrwt>
<totfact> 0.18138316E+04</totfact>
</mgrwt>
</event>
<event>
 6    1  0.1273846E-001  0.3000000E+03  0.7818608E-02  0.1093470E+00
         21   -1    0    0  501  502  0.00000000000E+00  0.00000000000E+00  0.13371346854E+01  0.13371346854E+01  0.00000000000E+00 0. -1.
         13   -1    0    0    0    0 -0.00000000000E+00 -0.00000000000E+00 -0.10000000000E+04  0.10000000000E+04  0.00000000000E+00 0.  1.
    9000005    2    1    2  501    0  0.27009576339E+02 -0.20311790071E+02 -0.68928096303E+03  0.69011495121E+03  0.28833746270E+01 0.  0.
         13    1    3    3    0    0  0.11929985963E+02 -0.88247389888E+01 -0.27393601077E+03  0.27433763610E+03  0.00000000000E+00 0.  1.
          1    1    3    3  501    0  0.15079590376E+02 -0.11487051082E+02 -0.41534495226E+03  0.41577731511E+03  0.00000000000E+00 0.  1.
         -1    1    1    2    0  502 -0.27009576339E+02  0.20311790071E+02 -0.30938190228E+03  0.31122218348E+03  0.00000000000E+00 0. -1.
<mgrwt>
<rscale>  1 0.30000000E+03</rscale>
<asrwt>0</asrwt>
<pdfrwt beam="1">  1       21 0.48623182E-02 0.30000000E+03</pdfrwt>
<pdfrwt beam="2">0</pdfrwt>
<totfact> 0.30207975E+04</totfact>
</mgrwt>
</event>
<event>
 6    1  0.1273846E-001  0.3000000E+03  0.7818608E-02  0.1093470E+00
         21   -1    0    0  501  502  0.00000000000E+00  0.00000000000E+00  0.16954140464E+01  0.16954140464E+01  0.00000000000E+00 0. -1.
         13   -1    0    0    0    0 -0.00000000000E+00 -0.00000000000E+00 -0.10000000000E+04  0.10000000000E+04  0.00000000000E+00 0.  1.
    9000005    2    1    2  501    0 -0.33946706535E+02 -0.19463166280E+02 -0.65326216898E+03  0.65444123735E+03  0.32677193709E+01 0.  0.
         13    1    3    3    0    0 -0.52655201047E-01  0.11237761126E+00 -0.17506541540E+01  0.17550473682E+01  0.00000000000E+00 0.  1.
          3    1    3    3  501    0 -0.33894051334E+02 -0.19575543892E+02 -0.65151151483E+03  0.65268618998E+03  0.00000000000E+00 0.  1.
         -1    1    1    2    0  502  0.33946706535E+02  0.19463166280E+02 -0.34504241697E+03  0.34725417670E+03  0.00000000000E+00 0. -1.
<mgrwt>
<rscale>  1 0.30000000E+03</rscale>
<asrwt>0</asrwt>
<pdfrwt beam="1">  1       21 0.61651550E-02 0.30000000E+03</pdfrwt>
<pdfrwt beam="2">0</pdfrwt>
<totfact> 0.20107086E+04</totfact>
</mgrwt>
</event>
<event>
 6    1  0.1273846E-001  0.3000000E+03  0.7818608E-02  0.1093470E+00
         21   -1    0    0  501  502  0.00000000000E+00  0.00000000000E+00  0.11493791860E+01  0.11493791860E+01  0.00000000000E+00 0. -1.
         13   -1    0    0    0    0 -0.00000000000E+00 -0.00000000000E+00 -0.10000000000E+04  0.10000000000E+04  0.00000000000E+00 0.  1.
    9000005    2    1    2  501    0 -0.25300367490E+02 -0.22466749175E+02 -0.49021435713E+03  0.49138893334E+03  0.28468333424E+01 0.  0.
         13    1    3    3    0    0 -0.27752276779E+00  0.47867350990E-01 -0.54952223345E+01  0.55024338865E+01  0.00000000000E+00 0.  1.
          3    1    3    3  501    0 -0.25022844723E+02 -0.22514616526E+02 -0.48471913480E+03  0.48588649946E+03  0.00000000000E+00 0.  1.
         -1    1    1    2    0  502  0.25300367490E+02  0.22466749175E+02 -0.50863626368E+03  0.50976044584E+03  0.00000000000E+00 0. -1.
<mgrwt>
<rscale>  1 0.30000000E+03</rscale>
<asrwt>0</asrwt>
<pdfrwt beam="1">  1       21 0.41795695E-02 0.30000000E+03</pdfrwt>
<pdfrwt beam="2">0</pdfrwt>
<totfact> 0.39046610E+04</totfact>
</mgrwt>
</event>
<event>
 6    1  0.1273846E-001  0.3000000E+03  0.7818608E-02  0.1093470E+00
         21   -1    0    0  501  502  0.00000000000E+00  0.00000000000E+00  0.31535621903E+01  0.31535621903E+01  0.00000000000E+00 0. -1.
         13   -1    0    0    0    0 -0.00000000000E+00 -0.00000000000E+00 -0.10000000000E+04  0.10000000000E+04  0.00000000000E+00 0.  1.
    9000005    2    1    2  501    0  0.22874554928E+01 -0.46712063162E+02 -0.77565442142E+03  0.77707137047E+03  0.35894347554E+01 0.  0.
         13    1    3    3    0    0  0.28131972093E+01 -0.22553495673E+02 -0.36680684951E+03  0.36751032516E+03  0.00000000000E+00 0.  1.
          3    1    3    3  501    0 -0.52574171657E+00 -0.24158567489E+02 -0.40884757190E+03  0.40956104531E+03  0.00000000000E+00 0.  1.
         -1    1    1    2    0  502 -0.22874554928E+01  0.46712063162E+02 -0.22119201639E+03  0.22608219172E+03  0.00000000000E+00 0. -1.
<mgrwt>
<rscale>  1 0.30000000E+03</rscale>
<asrwt>0</asrwt>
<pdfrwt beam="1">  1       21 0.11467523E-01 0.30000000E+03</pdfrwt>
<pdfrwt beam="2">0</pdfrwt>
<totfact> 0.67278345E+03</totfact>
</mgrwt>
</event>
<event>
 6    1  0.1273846E-001  0.3000000E+03  0.7818608E-02  0.1093470E+00
         21   -1    0    0  501  502  0.00000000000E+00  0.00000000000E+00  0.23486059221E+01  0.23486059221E+01  0.00000000000E+00 0. -1.
         13   -1    0    0    0    0 -0.00000000000E+00 -0.00000000000E+00 -0.10000000000E+04  0.10000000000E+04  0.00000000000E+00 0.  1.
    9000005    2    1    2  501    0 -0.47109643239E+02  0.12802770524E-01 -0.61446262006E+03  0.61627483682E+03  0.33233123634E+01 0.  0.
         13    1    3    3    0    0 -0.14753985640E+02 -0.12824616287E+01 -0.20409577883E+03  0.20463238194E+03  0.00000000000E+00 0.  1.
          3    1    3    3  501    0 -0.32355657598E+02  0.12952643993E+01 -0.41036684122E+03  0.41164245488E+03  0.00000000000E+00 0.  1.
         -1    1    1    2    0  502  0.47109643239E+02 -0.12802770524E-01 -0.38318877402E+03  0.38607376910E+03  0.00000000000E+00 0. -1.
<mgrwt>
<rscale>  1 0.30000000E+03</rscale>
<asrwt>0</asrwt>
<pdfrwt beam="1">  1       21 0.85404032E-02 0.30000000E+03</pdfrwt>
<pdfrwt beam="2">0</pdfrwt>
<totfact> 0.11385639E+04</totfact>
</mgrwt>
</event>
<event>
 6    1  0.1273846E-001  0.3000000E+03  0.7818608E-02  0.1093470E+00
         21   -1    0    0  501  502  0.00000000000E+00  0.00000000000E+00  0.12056854243E+01  0.12056854243E+01  0.00000000000E+00 0. -1.
         13   -1    0    0    0    0 -0.00000000000E+00 -0.00000000000E+00 -0.10000000000E+04  0.10000000000E+04  0.00000000000E+00 0.  1.
    9000005    2    1    2  501    0 -0.62889837131E+01  0.32795168921E+02 -0.37562326593E+03  0.37714060045E+03  0.52077034281E+01 0.  0.
         13    1    3    3    0    0 -0.58941302428E+00  0.16260185852E+02 -0.18971342738E+03  0.19040988835E+03  0.00000000000E+00 0.  1.
          3    1    3    3  501    0 -0.56995706888E+01  0.16534983069E+02 -0.18590983855E+03  0.18673071210E+03  0.00000000000E+00 0.  1.
         -3    1    1    2    0  502  0.62889837131E+01 -0.32795168921E+02 -0.62317104864E+03  0.62406508498E+03  0.00000000000E+00 0. -1.
<mgrwt>
<rscale>  1 0.30000000E+03</rscale>
<asrwt>0</asrwt>
<pdfrwt beam="1">  1       21 0.43843199E-02 0.30000000E+03</pdfrwt>
<pdfrwt beam="2">0</pdfrwt>
<totfact> 0.36013511E+04</totfact>
</mgrwt>
</event>
<event>
 6    1  0.1273846E-001  0.3000000E+03  0.7818608E-02  0.1093470E+00
         21   -1    0    0  501  502  0.00000000000E+00  0.00000000000E+00  0.74026917059E+01  0.74026917059E+01  0.00000000000E+00 0. -1.
         13   -1    0    0    0    0 -0.00000000000E+00 -0.00000000000E+00 -0.10000000000E+04  0.10000000000E+04  0.00000000000E+00 0.  1.
    9000005    2    1    2  501    0 -0.17544885243E+02  0.74797216207E+02 -0.72279254787E+03  0.72687273733E+03  0.35302234606E+01 0.  0.
         13    1    3    3    0    0 -0.79702321101E+01  0.38531244069E+02 -0.35655327118E+03  0.35871773940E+03  0.00000000000E+00 0.  1.
          3    1    3    3  501    0 -0.95746531327E+01  0.36265972137E+02 -0.36623927668E+03  0.36815499793E+03  0.00000000000E+00 0.  1.
         -1    1    1    2    0  502  0.17544885243E+02 -0.74797216207E+02 -0.26980476043E+03  0.28052995437E+03  0.00000000000E+00 0. -1.
<mgrwt>
<rscale>  1 0.30000000E+03</rscale>
<asrwt>0</asrwt>
<pdfrwt beam="1">  1       21 0.26918936E-01 0.30000000E+03</pdfrwt>
<pdfrwt beam="2">0</pdfrwt>
<totfact> 0.13484607E+03</totfact>
</mgrwt>
</event>
<event>
 6    1  0.1273846E-001  0.3000000E+03  0.7818608E-02  0.1093470E+00
         21   -1    0    0  501  502  0.00000000000E+00  0.00000000000E+00  0.11753063705E+01  0.11753063705E+01  0.00000000000E+00 0. -1.
         13   -1    0    0    0    0 -0.00000000000E+00 -0.00000000000E+00 -0.10000000000E+04  0.10000000000E+04  0.00000000000E+00 0.  1.
    9000005    2    1    2  501    0 -0.29581900619E+02 -0.15853151945E+02 -0.59688282709E+03  0.59783466207E+03  0.32806434986E+01 0.  0.
         13    1    3    3    0    0 -0.28707529526E+02 -0.14906802989E+02 -0.58093941094E+03  0.58183926836E+03  0.00000000000E+00 0.  1.
          3    1    3    3  501    0 -0.87437109242E+00 -0.94634895638E+00 -0.15943416158E+02  0.15995393710E+02  0.00000000000E+00 0.  1.
         -3    1    1    2    0  502  0.29581900619E+02  0.15853151945E+02 -0.40194186654E+03  0.40334064430E+03  0.00000000000E+00 0. -1.
<mgrwt>
<rscale>  1 0.30000000E+03</rscale>
<asrwt>0</asrwt>
<pdfrwt beam="1">  1       21 0.42738504E-02 0.30000000E+03</pdfrwt>
<pdfrwt beam="2">0</pdfrwt>
<totfact> 0.37602586E+04</totfact>
</mgrwt>
</event>
<event>
 6    1  0.1273846E-001  0.3000000E+03  0.7818608E-02  0.1093470E+00
         21   -1    0    0  501  502  0.00000000000E+00  0.00000000000E+00  0.25416276979E+01  0.25416276979E+01  0.00000000000E+00 0. -1.
         13   -1    0    0    0    0 -0.00000000000E+00 -0.00000000000E+00 -0.10000000000E+04  0.10000000000E+04  0.00000000000E+00 0.  1.
    9000005    2    1    2  501    0  0.20435401930E+02 -0.40958298314E+02 -0.70661068985E+03  0.70811411160E+03  0.56338416734E+01 0.  0.
         13    1    3    3    0    0  0.99042669345E+01 -0.15175807671E+02 -0.30657623578E+03  0.30711136089E+03  0.00000000000E+00 0.  1.
          1    1    3    3  501    0  0.10531134996E+02 -0.25782490643E+02 -0.40003445408E+03  0.40100275071E+03  0.00000000000E+00 0.  1.
         -3    1    1    2    0  502 -0.20435401930E+02  0.40958298314E+02 -0.29084768245E+03  0.29442751610E+03  0.00000000000E+00 0. -1.
<mgrwt>
<rscale>  1 0.30000000E+03</rscale>
<asrwt>0</asrwt>
<pdfrwt beam="1">  1       21 0.92423020E-02 0.30000000E+03</pdfrwt>
<pdfrwt beam="2">0</pdfrwt>
<totfact> 0.99003601E+03</totfact>
</mgrwt>
</event>
<event>
 6    1  0.1273846E-001  0.3000000E+03  0.7818608E-02  0.1093470E+00
         21   -1    0    0  501  502  0.00000000000E+00  0.00000000000E+00  0.20450773760E+01  0.20450773760E+01  0.00000000000E+00 0. -1.
         13   -1    0    0    0    0 -0.00000000000E+00 -0.00000000000E+00 -0.10000000000E+04  0.10000000000E+04  0.00000000000E+00 0.  1.
    9000005    2    1    2  501    0 -0.32363391415E+02 -0.15525089343E+02 -0.80353127124E+03  0.80433576115E+03  0.22572793373E+01 0.  0.
         13    1    3    3    0    0 -0.17340841740E+02 -0.87503565459E+01 -0.45819776926E+03  0.45860927737E+03  0.00000000000E+00 0.  1.
          3    1    3    3  501    0 -0.15022549674E+02 -0.67747327973E+01 -0.34533350197E+03  0.34572648378E+03  0.00000000000E+00 0.  1.
         -3    1    1    2    0  502  0.32363391415E+02  0.15525089343E+02 -0.19442365139E+03  0.19770931623E+03  0.00000000000E+00 0. -1.
<mgrwt>
<rscale>  1 0.30000000E+03</rscale>
<asrwt>0</asrwt>
<pdfrwt beam="1">  1       21 0.74366607E-02 0.30000000E+03</pdfrwt>
<pdfrwt beam="2">0</pdfrwt>
<totfact> 0.14518416E+04</totfact>
</mgrwt>
</event>
<event>
 6    1  0.1273846E-001  0.3000000E+03  0.7818608E-02  0.1093470E+00
         21   -1    0    0  501  502  0.00000000000E+00  0.00000000000E+00  0.31925835978E+01  0.31925835978E+01  0.00000000000E+00 0. -1.
         13   -1    0    0    0    0 -0.00000000000E+00 -0.00000000000E+00 -0.10000000000E+04  0.10000000000E+04  0.00000000000E+00 0.  1.
    9000005    2    1    2  501    0 -0.44740157374E+02 -0.21696512724E+02 -0.73619201499E+03  0.73787615403E+03  0.31804720300E+01 0.  0.
         13    1    3    3    0    0 -0.36559482278E+02 -0.17581644244E+02 -0.61785348856E+03  0.61918385257E+03  0.00000000000E+00 0.  1.
          1    1    3    3  501    0 -0.81806750965E+01 -0.41148684805E+01 -0.11833852643E+03  0.11869230146E+03  0.00000000000E+00 0.  1.
         -1    1    1    2    0  502  0.44740157374E+02  0.21696512724E+02 -0.26061540141E+03  0.26531642957E+03  0.00000000000E+00 0. -1.
<mgrwt>
<rscale>  1 0.30000000E+03</rscale>
<asrwt>0</asrwt>
<pdfrwt beam="1">  1       21 0.11609419E-01 0.30000000E+03</pdfrwt>
<pdfrwt beam="2">0</pdfrwt>
<totfact> 0.65799613E+03</totfact>
</mgrwt>
</event>
<event>
 6    1  0.1273846E-001  0.3000000E+03  0.7818608E-02  0.1093470E+00
         21   -1    0    0  501  502  0.00000000000E+00  0.00000000000E+00  0.36514295951E+01  0.36514295951E+01  0.00000000000E+00 0. -1.
         13   -1    0    0    0    0 -0.00000000000E+00 -0.00000000000E+00 -0.10000000000E+04  0.10000000000E+04  0.00000000000E+00 0.  1.
    9000005    2    1    2  501    0  0.42926124291E+02  0.76697291274E+01 -0.84428825805E+03  0.84546225334E+03  0.90709561966E+01 0.  0.
         13    1    3    3    0    0  0.22173654042E+02 -0.42663705318E+00 -0.44743342962E+03  0.44798273057E+03  0.00000000000E+00 0.  1.
          3    1    3    3  501    0  0.20752470250E+02  0.80963661806E+01 -0.39685482843E+03  0.39747952276E+03  0.00000000000E+00 0.  1.
         -1    1    1    2    0  502 -0.42926124291E+02 -0.76697291274E+01 -0.15206031236E+03  0.15818917626E+03  0.00000000000E+00 0. -1.
<mgrwt>
<rscale>  1 0.30000000E+03</rscale>
<asrwt>0</asrwt>
<pdfrwt beam="1">  1       21 0.13277954E-01 0.30000000E+03</pdfrwt>
<pdfrwt beam="2">0</pdfrwt>
<totfact> 0.51533751E+03</totfact>
</mgrwt>
</event>
<event>
 6    1  0.1273846E-001  0.3000000E+03  0.7818608E-02  0.1093470E+00
         21   -1    0    0  501  502  0.00000000000E+00  0.00000000000E+00  0.10813078932E+02  0.10813078932E+02  0.00000000000E+00 0. -1.
         13   -1    0    0    0    0 -0.00000000000E+00 -0.00000000000E+00 -0.10000000000E+04  0.10000000000E+04  0.00000000000E+00 0.  1.
    9000005    2    1    2  501    0 -0.18584830000E+02 -0.10143272584E+03 -0.55885012857E+03  0.56829330677E+03  0.31340930376E+01 0.  0.
         13    1    3    3    0    0 -0.83389541376E+01 -0.45544342851E+02 -0.24236324779E+03  0.24674636614E+03  0.00000000000E+00 0.  1.
          1    1    3    3  501    0 -0.10245875862E+02 -0.55888382989E+02 -0.31648688077E+03  0.32154694063E+03  0.00000000000E+00 0.  1.
         -1    1    1    2    0  502  0.18584830000E+02  0.10143272584E+03 -0.43033679250E+03  0.44251977217E+03  0.00000000000E+00 0. -1.
<mgrwt>
<rscale>  1 0.30000000E+03</rscale>
<asrwt>0</asrwt>
<pdfrwt beam="1">  1       21 0.39320370E-01 0.30000000E+03</pdfrwt>
<pdfrwt beam="2">0</pdfrwt>
<totfact> 0.62598504E+02</totfact>
</mgrwt>
</event>
<event>
 6    1  0.1273846E-001  0.3000000E+03  0.7818608E-02  0.1093470E+00
         21   -1    0    0  501  502  0.00000000000E+00  0.00000000000E+00  0.40789407826E+01  0.40789407826E+01  0.00000000000E+00 0. -1.
         13   -1    0    0    0    0 -0.00000000000E+00 -0.00000000000E+00 -0.10000000000E+04  0.10000000000E+04  0.00000000000E+00 0.  1.
    9000005    2    1    2  501    0  0.44605244413E+02 -0.35810933680E+02 -0.72086775797E+03  0.72314056796E+03  0.31473387206E+01 0.  0.
         13    1    3    3    0    0  0.40075207791E+02 -0.31449460711E+02 -0.65127714414E+03  0.65326641528E+03  0.00000000000E+00 0.  1.
          1    1    3    3  501    0  0.45300366218E+01 -0.43614729681E+01 -0.69590613832E+02  0.69874152673E+02  0.00000000000E+00 0.  1.
         -3    1    1    2    0  502 -0.44605244413E+02  0.35810933680E+02 -0.27505330125E+03  0.28093837283E+03  0.00000000000E+00 0. -1.
<mgrwt>
<rscale>  1 0.30000000E+03</rscale>
<asrwt>0</asrwt>
<pdfrwt beam="1">  1       21 0.14832543E-01 0.30000000E+03</pdfrwt>
<pdfrwt beam="2">0</pdfrwt>
<totfact> 0.42044425E+03</totfact>
</mgrwt>
</event>
<event>
 6    1  0.1273846E-001  0.3000000E+03  0.7818608E-02  0.1093470E+00
         21   -1    0    0  501  502  0.00000000000E+00  0.00000000000E+00  0.13256483862E+01  0.13256483862E+01  0.00000000000E+00 0. -1.
         13   -1    0    0    0    0 -0.00000000000E+00 -0.00000000000E+00 -0.10000000000E+04  0.10000000000E+04  0.00000000000E+00 0.  1.
    9000005    2    1    2  501    0  0.30312691289E+02  0.70249565799E+01 -0.75835816550E+03  0.75900338656E+03  0.32900397179E+01 0.  0.
         13    1    3    3    0    0  0.29841944748E+02  0.66184135394E+01 -0.74971188022E+03  0.75033475756E+03  0.00000000000E+00 0.  1.
          1    1    3    3  501    0  0.47074654125E+00  0.40654304051E+00 -0.86462852827E+01  0.86686290000E+01  0.00000000000E+00 0.  1.
         -3    1    1    2    0  502 -0.30312691289E+02 -0.70249565799E+01 -0.24031618611E+03  0.24232226182E+03  0.00000000000E+00 0. -1.
<mgrwt>
<rscale>  1 0.30000000E+03</rscale>
<asrwt>0</asrwt>
<pdfrwt beam="1">  1       21 0.48205498E-02 0.30000000E+03</pdfrwt>
<pdfrwt beam="2">0</pdfrwt>
<totfact> 0.30654869E+04</totfact>
</mgrwt>
</event>
<event>
 6    1  0.1273846E-001  0.3000000E+03  0.7818608E-02  0.1093470E+00
         21   -1    0    0  501  502  0.00000000000E+00  0.00000000000E+00  0.12701960685E+01  0.12701960685E+01  0.00000000000E+00 0. -1.
         13   -1    0    0    0    0 -0.00000000000E+00 -0.00000000000E+00 -0.10000000000E+04  0.10000000000E+04  0.00000000000E+00 0.  1.
    9000005    2    1    2  501    0  0.30576509656E+02 -0.97711677008E+00 -0.24537392884E+03  0.24729343765E+03  0.31307587933E+01 0.  0.
         13    1    3    3    0    0  0.22138753280E+01 -0.39926068242E+00 -0.25018317677E+02  0.25119253023E+02  0.00000000000E+00 0.  1.
          3    1    3    3  501    0  0.28362634328E+02 -0.57785608767E+00 -0.22035561117E+03  0.22217418463E+03  0.00000000000E+00 0.  1.
         -1    1    1    2    0  502 -0.30576509656E+02  0.97711677008E+00 -0.75335587509E+03  0.75397675841E+03  0.00000000000E+00 0. -1.
<mgrwt>
<rscale>  1 0.30000000E+03</rscale>
<asrwt>0</asrwt>
<pdfrwt beam="1">  1       21 0.46189045E-02 0.30000000E+03</pdfrwt>
<pdfrwt beam="2">0</pdfrwt>
<totfact> 0.32965268E+04</totfact>
</mgrwt>
</event>
<event>
 6    1  0.1273846E-001  0.3000000E+03  0.7818608E-02  0.1093470E+00
         21   -1    0    0  501  502  0.00000000000E+00  0.00000000000E+00  0.15714938743E+01  0.15714938743E+01  0.00000000000E+00 0. -1.
         13   -1    0    0    0    0 -0.00000000000E+00 -0.00000000000E+00 -0.10000000000E+04  0.10000000000E+04  0.00000000000E+00 0.  1.
    9000005    2    1    2  501    0  0.69374188446E+01  0.31986321984E+02 -0.78097793127E+03  0.78167150506E+03  0.35440262138E+01 0.  0.
         13    1    3    3    0    0  0.65380591770E+01  0.31298236950E+02 -0.77063741154E+03  0.77130042521E+03  0.00000000000E+00 0.  1.
          1    1    3    3  501    0  0.39935966767E+00  0.68808503431E+00 -0.10340519729E+02  0.10371079858E+02  0.00000000000E+00 0.  1.
         -1    1    1    2    0  502 -0.69374188446E+01 -0.31986321984E+02 -0.21745057485E+03  0.21989998881E+03  0.00000000000E+00 0. -1.
<mgrwt>
<rscale>  1 0.30000000E+03</rscale>
<asrwt>0</asrwt>
<pdfrwt beam="1">  1       21 0.57145352E-02 0.30000000E+03</pdfrwt>
<pdfrwt beam="2">0</pdfrwt>
<totfact> 0.22917666E+04</totfact>
</mgrwt>
</event>
<event>
 6    1  0.1273846E-001  0.3000000E+03  0.7818608E-02  0.1093470E+00
         21   -1    0    0  501  502  0.00000000000E+00  0.00000000000E+00  0.19458730415E+01  0.19458730415E+01  0.00000000000E+00 0. -1.
         13   -1    0    0    0    0 -0.00000000000E+00 -0.00000000000E+00 -0.10000000000E+04  0.10000000000E+04  0.00000000000E+00 0.  1.
    9000005    2    1    2  501    0 -0.71802958498E+00 -0.43504174243E+02 -0.52710414696E+03  0.52899025947E+03  0.99390207989E+01 0.  0.
         13    1    3    3    0    0  0.25995257653E+01 -0.59816766851E+01 -0.10796895904E+03  0.10816577142E+03  0.00000000000E+00 0.  1.
          3    1    3    3  501    0 -0.33175553503E+01 -0.37522497558E+02 -0.41913518792E+03  0.42082448806E+03  0.00000000000E+00 0.  1.
         -3    1    1    2    0  502  0.71802958498E+00  0.43504174243E+02 -0.47094998000E+03  0.47295561357E+03  0.00000000000E+00 0. -1.
<mgrwt>
<rscale>  1 0.30000000E+03</rscale>
<asrwt>0</asrwt>
<pdfrwt beam="1">  1       21 0.70759169E-02 0.30000000E+03</pdfrwt>
<pdfrwt beam="2">0</pdfrwt>
<totfact> 0.15835077E+04</totfact>
</mgrwt>
</event>
<event>
 6    1  0.1273846E-001  0.3000000E+03  0.7818608E-02  0.1093470E+00
         21   -1    0    0  501  502  0.00000000000E+00  0.00000000000E+00  0.12582848847E+01  0.12582848847E+01  0.00000000000E+00 0. -1.
         13   -1    0    0    0    0 -0.00000000000E+00 -0.00000000000E+00 -0.10000000000E+04  0.10000000000E+04  0.00000000000E+00 0.  1.
    9000005    2    1    2  501    0 -0.63661585732E+01 -0.29871283316E+02 -0.75273048447E+03  0.75335841166E+03  0.35906300856E+01 0.  0.
         13    1    3    3    0    0 -0.56646484358E+01 -0.21036640088E+02 -0.56208789481E+03  0.56250993765E+03  0.00000000000E+00 0.  1.
          1    1    3    3  501    0 -0.70151013734E+00 -0.88346432277E+01 -0.19064258967E+03  0.19084847401E+03  0.00000000000E+00 0.  1.
         -3    1    1    2    0  502  0.63661585732E+01  0.29871283316E+02 -0.24601123064E+03  0.24789987322E+03  0.00000000000E+00 0. -1.
<mgrwt>
<rscale>  1 0.30000000E+03</rscale>
<asrwt>0</asrwt>
<pdfrwt beam="1">  1       21 0.45755910E-02 0.30000000E+03</pdfrwt>
<pdfrwt beam="2">0</pdfrwt>
<totfact> 0.33497182E+04</totfact>
</mgrwt>
</event>
<event>
 6    1  0.1273846E-001  0.3000000E+03  0.7818608E-02  0.1093470E+00
         21   -1    0    0  501  502  0.00000000000E+00  0.00000000000E+00  0.13879799987E+01  0.13879799987E+01  0.00000000000E+00 0. -1.
         13   -1    0    0    0    0 -0.00000000000E+00 -0.00000000000E+00 -0.10000000000E+04  0.10000000000E+04  0.00000000000E+00 0.  1.
    9000005    2    1    2  501    0  0.20420918653E+02 -0.29077745880E+02 -0.64789305889E+03  0.64887369815E+03  0.30217824674E+01 0.  0.
         13    1    3    3    0    0  0.19246612466E+02 -0.26242780733E+02 -0.60079558434E+03  0.60167636633E+03  0.00000000000E+00 0.  1.
          1    1    3    3  501    0  0.11743061874E+01 -0.28349651471E+01 -0.47097474544E+02  0.47197331819E+02  0.00000000000E+00 0.  1.
         -1    1    1    2    0  502 -0.20420918653E+02  0.29077745880E+02 -0.35071896111E+03  0.35251428185E+03  0.00000000000E+00 0. -1.
<mgrwt>
<rscale>  1 0.30000000E+03</rscale>
<asrwt>0</asrwt>
<pdfrwt beam="1">  1       21 0.50472106E-02 0.30000000E+03</pdfrwt>
<pdfrwt beam="2">0</pdfrwt>
<totfact> 0.28346754E+04</totfact>
</mgrwt>
</event>
<event>
 6    1  0.1273846E-001  0.3000000E+03  0.7818608E-02  0.1093470E+00
         21   -1    0    0  501  502  0.00000000000E+00  0.00000000000E+00  0.14691035291E+01  0.14691035291E+01  0.00000000000E+00 0. -1.
         13   -1    0    0    0    0 -0.00000000000E+00 -0.00000000000E+00 -0.10000000000E+04  0.10000000000E+04  0.00000000000E+00 0.  1.
    9000005    2    1    2  501    0  0.14571574837E+02 -0.35254949047E+02 -0.53538360206E+03  0.53675342857E+03  0.36605340661E+01 0.  0.
         13    1    3    3    0    0  0.60220794486E+01 -0.18326688650E+02 -0.28587624897E+03  0.28652637345E+03  0.00000000000E+00 0.  1.
          3    1    3    3  501    0  0.85494953884E+01 -0.16928260397E+02 -0.24950735309E+03  0.25022705513E+03  0.00000000000E+00 0.  1.
         -3    1    1    2    0  502 -0.14571574837E+02  0.35254949047E+02 -0.46314729441E+03  0.46471567495E+03  0.00000000000E+00 0. -1.
<mgrwt>
<rscale>  1 0.30000000E+03</rscale>
<asrwt>0</asrwt>
<pdfrwt beam="1">  1       21 0.53422059E-02 0.30000000E+03</pdfrwt>
<pdfrwt beam="2">0</pdfrwt>
<totfact> 0.25725405E+04</totfact>
</mgrwt>
</event>
<event>
 6    1  0.1273846E-001  0.3000000E+03  0.7818608E-02  0.1093470E+00
         21   -1    0    0  501  502  0.00000000000E+00  0.00000000000E+00  0.14143617023E+01  0.14143617023E+01  0.00000000000E+00 0. -1.
         13   -1    0    0    0    0 -0.00000000000E+00 -0.00000000000E+00 -0.10000000000E+04  0.10000000000E+04  0.00000000000E+00 0.  1.
    9000005    2    1    2  501    0 -0.20528755703E+02 -0.23288599899E+02 -0.78114135197E+03  0.78176508137E+03  0.33229487887E+01 0.  0.
         13    1    3    3    0    0 -0.18841902018E+02 -0.22521447928E+02 -0.73122407539E+03  0.73181341975E+03  0.00000000000E+00 0.  1.
          3    1    3    3  501    0 -0.16868536852E+01 -0.76715197149E+00 -0.49917276578E+02  0.49951661619E+02  0.00000000000E+00 0.  1.
         -3    1    1    2    0  502  0.20528755703E+02  0.23288599899E+02 -0.21744428633E+03  0.21964928034E+03  0.00000000000E+00 0. -1.
<mgrwt>
<rscale>  1 0.30000000E+03</rscale>
<asrwt>0</asrwt>
<pdfrwt beam="1">  1       21 0.51431443E-02 0.30000000E+03</pdfrwt>
<pdfrwt beam="2">0</pdfrwt>
<totfact> 0.27450470E+04</totfact>
</mgrwt>
</event>
<event>
 6    1  0.1273846E-001  0.3000000E+03  0.7818608E-02  0.1093470E+00
         21   -1    0    0  501  502  0.00000000000E+00  0.00000000000E+00  0.10026229848E+01  0.10026229848E+01  0.00000000000E+00 0. -1.
         13   -1    0    0    0    0 -0.00000000000E+00 -0.00000000000E+00 -0.10000000000E+04  0.10000000000E+04  0.00000000000E+00 0.  1.
    9000005    2    1    2  501    0 -0.16903230908E+02  0.26259946880E+02 -0.57479413358E+03  0.57565136136E+03  0.32999714998E+01 0.  0.
         13    1    3    3    0    0 -0.10936220432E+02  0.13996645121E+02 -0.32103303696E+03  0.32152405479E+03  0.00000000000E+00 0.  1.
          1    1    3    3  501    0 -0.59670104764E+01  0.12263301758E+02 -0.25376109662E+03  0.25412730657E+03  0.00000000000E+00 0.  1.
         -3    1    1    2    0  502  0.16903230908E+02 -0.26259946880E+02 -0.42420324343E+03  0.42535126162E+03  0.00000000000E+00 0. -1.
<mgrwt>
<rscale>  1 0.30000000E+03</rscale>
<asrwt>0</asrwt>
<pdfrwt beam="1">  1       21 0.36459095E-02 0.30000000E+03</pdfrwt>
<pdfrwt beam="2">0</pdfrwt>
<totfact> 0.49134797E+04</totfact>
</mgrwt>
</event>
<event>
 6    1  0.1273846E-001  0.3000000E+03  0.7818608E-02  0.1093470E+00
         21   -1    0    0  501  502  0.00000000000E+00  0.00000000000E+00  0.54386785643E+01  0.54386785643E+01  0.00000000000E+00 0. -1.
         13   -1    0    0    0    0 -0.00000000000E+00 -0.00000000000E+00 -0.10000000000E+04  0.10000000000E+04  0.00000000000E+00 0.  1.
    9000005    2    1    2  501    0 -0.42167439169E+02 -0.26528925755E+02 -0.86789309159E+03  0.86932579423E+03  0.26535387567E+01 0.  0.
         13    1    3    3    0    0 -0.11980590441E+02 -0.85512267658E+01 -0.27136913898E+03  0.27176804010E+03  0.00000000000E+00 0.  1.
          1    1    3    3  501    0 -0.30186848728E+02 -0.17977698989E+02 -0.59652395261E+03  0.59755775414E+03  0.00000000000E+00 0.  1.
         -1    1    1    2    0  502  0.42167439169E+02  0.26528925755E+02 -0.12666822985E+03  0.13611288433E+03  0.00000000000E+00 0. -1.
<mgrwt>
<rscale>  1 0.30000000E+03</rscale>
<asrwt>0</asrwt>
<pdfrwt beam="1">  1       21 0.19777055E-01 0.30000000E+03</pdfrwt>
<pdfrwt beam="2">0</pdfrwt>
<totfact> 0.24510741E+03</totfact>
</mgrwt>
</event>
<event>
 6    1  0.1273846E-001  0.3000000E+03  0.7818608E-02  0.1093470E+00
         21   -1    0    0  501  502  0.00000000000E+00  0.00000000000E+00  0.14180033821E+01  0.14180033821E+01  0.00000000000E+00 0. -1.
         13   -1    0    0    0    0 -0.00000000000E+00 -0.00000000000E+00 -0.10000000000E+04  0.10000000000E+04  0.00000000000E+00 0.  1.
    9000005    2    1    2  501    0 -0.34440007679E+02  0.10679482719E+02 -0.64114004534E+03  0.64216194705E+03  0.33530607614E+01 0.  0.
         13    1    3    3    0    0 -0.78153857776E+01  0.14843605183E+01 -0.16091840162E+03  0.16111491415E+03  0.00000000000E+00 0.  1.
          3    1    3    3  501    0 -0.26624621901E+02  0.91951222010E+01 -0.48022164371E+03  0.48104703289E+03  0.00000000000E+00 0.  1.
         -3    1    1    2    0  502  0.34440007679E+02 -0.10679482719E+02 -0.35744195128E+03  0.35925605634E+03  0.00000000000E+00 0. -1.
<mgrwt>
<rscale>  1 0.30000000E+03</rscale>
<asrwt>0</asrwt>
<pdfrwt beam="1">  1       21 0.51563868E-02 0.30000000E+03</pdfrwt>
<pdfrwt beam="2">0</pdfrwt>
<totfact> 0.27330213E+04</totfact>
</mgrwt>
</event>
<event>
 6    1  0.1273846E-001  0.3000000E+03  0.7818608E-02  0.1093470E+00
         21   -1    0    0  501  502  0.00000000000E+00  0.00000000000E+00  0.12457514275E+01  0.12457514275E+01  0.00000000000E+00 0. -1.
         13   -1    0    0    0    0 -0.00000000000E+00 -0.00000000000E+00 -0.10000000000E+04  0.10000000000E+04  0.00000000000E+00 0.  1.
    9000005    2    1    2  501    0 -0.28036791766E+02 -0.18133078302E+02 -0.66024691278E+03  0.66109565720E+03  0.25713624863E+01 0.  0.
         13    1    3    3    0    0 -0.10491487070E+02 -0.80654159916E+01 -0.24834431153E+03  0.24869664112E+03  0.00000000000E+00 0.  1.
          3    1    3    3  501    0 -0.17545304696E+02 -0.10067662310E+02 -0.41190260126E+03  0.41239901608E+03  0.00000000000E+00 0.  1.
         -1    1    1    2    0  502  0.28036791766E+02  0.18133078302E+02 -0.33850733579E+03  0.34015009423E+03  0.00000000000E+00 0. -1.
<mgrwt>
<rscale>  1 0.30000000E+03</rscale>
<asrwt>0</asrwt>
<pdfrwt beam="1">  1       21 0.45300147E-02 0.30000000E+03</pdfrwt>
<pdfrwt beam="2">0</pdfrwt>
<totfact> 0.34071558E+04</totfact>
</mgrwt>
</event>
<event>
 6    1  0.1273846E-001  0.3000000E+03  0.7818608E-02  0.1093470E+00
         21   -1    0    0  501  502  0.00000000000E+00  0.00000000000E+00  0.12140553432E+01  0.12140553432E+01  0.00000000000E+00 0. -1.
         13   -1    0    0    0    0 -0.00000000000E+00 -0.00000000000E+00 -0.10000000000E+04  0.10000000000E+04  0.00000000000E+00 0.  1.
    9000005    2    1    2  501    0 -0.78732751610E+01  0.31793321797E+02 -0.66808037079E+03  0.66889044745E+03  0.32007952555E+01 0.  0.
         13    1    3    3    0    0 -0.25126707221E+01  0.78112500879E+01 -0.14275327258E+03  0.14298890158E+03  0.00000000000E+00 0.  1.
          1    1    3    3  501    0 -0.53606044390E+01  0.23982071709E+02 -0.52532709820E+03  0.52590154587E+03  0.00000000000E+00 0.  1.
         -1    1    1    2    0  502  0.78732751610E+01 -0.31793321797E+02 -0.33070557387E+03  0.33232360789E+03  0.00000000000E+00 0. -1.
<mgrwt>
<rscale>  1 0.30000000E+03</rscale>
<asrwt>0</asrwt>
<pdfrwt beam="1">  1       21 0.44147560E-02 0.30000000E+03</pdfrwt>
<pdfrwt beam="2">0</pdfrwt>
<totfact> 0.35593937E+04</totfact>
</mgrwt>
</event>
<event>
 6    1  0.1273846E-001  0.3000000E+03  0.7818608E-02  0.1093470E+00
         21   -1    0    0  501  502  0.00000000000E+00  0.00000000000E+00  0.80125930472E+01  0.80125930472E+01  0.00000000000E+00 0. -1.
         13   -1    0    0    0    0 -0.00000000000E+00 -0.00000000000E+00 -0.10000000000E+04  0.10000000000E+04  0.00000000000E+00 0.  1.
    9000005    2    1    2  501    0 -0.50399061107E+02  0.86001308654E+01 -0.90966106501E+03  0.91110204569E+03  0.31075479166E+01 0.  0.
         13    1    3    3    0    0 -0.34927569953E+02  0.49853883063E+01 -0.60783229879E+03  0.60885539555E+03  0.00000000000E+00 0.  1.
          3    1    3    3  501    0 -0.15471491154E+02  0.36147425591E+01 -0.30182876622E+03  0.30224665014E+03  0.00000000000E+00 0.  1.
         -3    1    1    2    0  502  0.50399061107E+02 -0.86001308654E+01 -0.82326341944E+02  0.96910547358E+02  0.00000000000E+00 0. -1.
<mgrwt>
<rscale>  1 0.30000000E+03</rscale>
<asrwt>0</asrwt>
<pdfrwt beam="1">  1       21 0.29136763E-01 0.30000000E+03</pdfrwt>
<pdfrwt beam="2">0</pdfrwt>
<totfact> 0.11525378E+03</totfact>
</mgrwt>
</event>
<event>
 6    1  0.1273846E-001  0.3000000E+03  0.7818608E-02  0.1093470E+00
         21   -1    0    0  501  502  0.00000000000E+00  0.00000000000E+00  0.17217994973E+01  0.17217994973E+01  0.00000000000E+00 0. -1.
         13   -1    0    0    0    0 -0.00000000000E+00 -0.00000000000E+00 -0.10000000000E+04  0.10000000000E+04  0.00000000000E+00 0.  1.
    9000005    2    1    2  501    0  0.34860023873E+02 -0.98264080843E+01 -0.74312409925E+03  0.74400995470E+03  0.23677528216E+01 0.  0.
         13    1    3    3    0    0  0.25414949505E+02 -0.73555355165E+01 -0.52090334037E+03  0.52157483986E+03  0.00000000000E+00 0.  1.
          3    1    3    3  501    0  0.94450743682E+01 -0.24708725678E+01 -0.22222075887E+03  0.22243511484E+03  0.00000000000E+00 0.  1.
         -3    1    1    2    0  502 -0.34860023873E+02  0.98264080843E+01 -0.25515410126E+03  0.25771184480E+03  0.00000000000E+00 0. -1.
<mgrwt>
<rscale>  1 0.30000000E+03</rscale>
<asrwt>0</asrwt>
<pdfrwt beam="1">  1       21 0.62611023E-02 0.30000000E+03</pdfrwt>
<pdfrwt beam="2">0</pdfrwt>
<totfact> 0.19577839E+04</totfact>
</mgrwt>
</event>
<event>
 6    1  0.1273846E-001  0.3000000E+03  0.7818608E-02  0.1093470E+00
         21   -1    0    0  501  502  0.00000000000E+00  0.00000000000E+00  0.15956128708E+01  0.15956128708E+01  0.00000000000E+00 0. -1.
         13   -1    0    0    0    0 -0.00000000000E+00 -0.00000000000E+00 -0.10000000000E+04  0.10000000000E+04  0.00000000000E+00 0.  1.
    9000005    2    1    2  501    0 -0.32123917748E+02  0.30156584936E+01 -0.79381509525E+03  0.79447772702E+03  0.33783127087E+01 0.  0.
         13    1    3    3    0    0 -0.22142350582E+02  0.21610850413E+01 -0.50745651372E+03  0.50794396078E+03  0.00000000000E+00 0.  1.
          3    1    3    3  501    0 -0.99815671659E+01  0.85457345236E+00 -0.28635858153E+03  0.28653376624E+03  0.00000000000E+00 0.  1.
         -3    1    1    2    0  502  0.32123917748E+02 -0.30156584936E+01 -0.20458929188E+03  0.20711788585E+03  0.00000000000E+00 0. -1.
<mgrwt>
<rscale>  1 0.30000000E+03</rscale>
<asrwt>0</asrwt>
<pdfrwt beam="1">  1       21 0.58022409E-02 0.30000000E+03</pdfrwt>
<pdfrwt beam="2">0</pdfrwt>
<totfact> 0.22324716E+04</totfact>
</mgrwt>
</event>
<event>
 6    1  0.1273846E-001  0.3000000E+03  0.7818608E-02  0.1093470E+00
         21   -1    0    0  501  502  0.00000000000E+00  0.00000000000E+00  0.12862825416E+01  0.12862825416E+01  0.00000000000E+00 0. -1.
         13   -1    0    0    0    0 -0.00000000000E+00 -0.00000000000E+00 -0.10000000000E+04  0.10000000000E+04  0.00000000000E+00 0.  1.
    9000005    2    1    2  501    0 -0.16603299843E+02 -0.31661265764E+02 -0.50360628434E+03  0.50488979218E+03  0.40382303071E+01 0.  0.
         13    1    3    3    0    0 -0.35536817667E+01 -0.46023696187E+01 -0.67462587305E+02  0.67712710374E+02  0.00000000000E+00 0.  1.
          3    1    3    3  501    0 -0.13049618076E+02 -0.27058896146E+02 -0.43614369704E+03  0.43717708181E+03  0.00000000000E+00 0.  1.
         -3    1    1    2    0  502  0.16603299843E+02  0.31661265764E+02 -0.49510743312E+03  0.49639649036E+03  0.00000000000E+00 0. -1.
<mgrwt>
<rscale>  1 0.30000000E+03</rscale>
<asrwt>0</asrwt>
<pdfrwt beam="1">  1       21 0.46774009E-02 0.30000000E+03</pdfrwt>
<pdfrwt beam="2">0</pdfrwt>
<totfact> 0.32267661E+04</totfact>
</mgrwt>
</event>
<event>
 6    1  0.1273846E-001  0.3000000E+03  0.7818608E-02  0.1093470E+00
         21   -1    0    0  501  502  0.00000000000E+00  0.00000000000E+00  0.10823874154E+01  0.10823874154E+01  0.00000000000E+00 0. -1.
         13   -1    0    0    0    0 -0.00000000000E+00 -0.00000000000E+00 -0.10000000000E+04  0.10000000000E+04  0.00000000000E+00 0.  1.
    9000005    2    1    2  501    0  0.30289220488E+02 -0.20735026332E+01 -0.69074018785E+03  0.69141310995E+03  0.28888070899E+01 0.  0.
         13    1    3    3    0    0  0.63552611438E+01 -0.71514857625E+00 -0.12116395269E+03  0.12133261809E+03  0.00000000000E+00 0.  1.
          3    1    3    3  501    0  0.23933959344E+02 -0.13583540569E+01 -0.56957623516E+03  0.57008049186E+03  0.00000000000E+00 0.  1.
         -3    1    1    2    0  502 -0.30289220488E+02  0.20735026332E+01 -0.30817742473E+03  0.30966927747E+03  0.00000000000E+00 0. -1.
<mgrwt>
<rscale>  1 0.30000000E+03</rscale>
<asrwt>0</asrwt>
<pdfrwt beam="1">  1       21 0.39359625E-02 0.30000000E+03</pdfrwt>
<pdfrwt beam="2">0</pdfrwt>
<totfact> 0.43205307E+04</totfact>
</mgrwt>
</event>
<event>
 6    1  0.1273846E-001  0.3000000E+03  0.7818608E-02  0.1093470E+00
         21   -1    0    0  501  502  0.00000000000E+00  0.00000000000E+00  0.13055522658E+01  0.13055522658E+01  0.00000000000E+00 0. -1.
         13   -1    0    0    0    0 -0.00000000000E+00 -0.00000000000E+00 -0.10000000000E+04  0.10000000000E+04  0.00000000000E+00 0.  1.
    9000005    2    1    2  501    0  0.24337424048E+00 -0.30239550340E+02 -0.77197648717E+03  0.77257968298E+03  0.41448983752E+01 0.  0.
         13    1    3    3    0    0  0.15828150091E+01 -0.12934875193E+02 -0.29554987942E+03  0.29583702866E+03  0.00000000000E+00 0.  1.
          1    1    3    3  501    0 -0.13394407686E+01 -0.17304675146E+02 -0.47642660774E+03  0.47674265432E+03  0.00000000000E+00 0.  1.
         -3    1    1    2    0  502 -0.24337424048E+00  0.30239550340E+02 -0.22671796057E+03  0.22872586928E+03  0.00000000000E+00 0. -1.
<mgrwt>
<rscale>  1 0.30000000E+03</rscale>
<asrwt>0</asrwt>
<pdfrwt beam="1">  1       21 0.47474728E-02 0.30000000E+03</pdfrwt>
<pdfrwt beam="2">0</pdfrwt>
<totfact> 0.31462016E+04</totfact>
</mgrwt>
</event>
<event>
 6    1  0.1273846E-001  0.3000000E+03  0.7818608E-02  0.1093470E+00
         21   -1    0    0  501  502  0.00000000000E+00  0.00000000000E+00  0.13494655894E+01  0.13494655894E+01  0.00000000000E+00 0. -1.
         13   -1    0    0    0    0 -0.00000000000E+00 -0.00000000000E+00 -0.10000000000E+04  0.10000000000E+04  0.00000000000E+00 0.  1.
    9000005    2    1    2  501    0  0.18184610385E+02 -0.26064667160E+02 -0.74927936698E+03  0.74996126763E+03  0.35051718852E+01 0.  0.
         13    1    3    3    0    0  0.68290411337E+01 -0.10357446356E+02 -0.33275994986E+03  0.33299113611E+03  0.00000000000E+00 0.  1.
          3    1    3    3  501    0  0.11355569251E+02 -0.15707220804E+02 -0.41651941712E+03  0.41697013152E+03  0.00000000000E+00 0.  1.
         -3    1    1    2    0  502 -0.18184610385E+02  0.26064667160E+02 -0.24937116743E+03  0.25138819796E+03  0.00000000000E+00 0. -1.
<mgrwt>
<rscale>  1 0.30000000E+03</rscale>
<asrwt>0</asrwt>
<pdfrwt beam="1">  1       21 0.49071579E-02 0.30000000E+03</pdfrwt>
<pdfrwt beam="2">0</pdfrwt>
<totfact> 0.29739445E+04</totfact>
</mgrwt>
</event>
<event>
 6    1  0.1273846E-001  0.3000000E+03  0.7818608E-02  0.1093470E+00
         21   -1    0    0  501  502  0.00000000000E+00  0.00000000000E+00  0.23166820415E+01  0.23166820415E+01  0.00000000000E+00 0. -1.
         13   -1    0    0    0    0 -0.00000000000E+00 -0.00000000000E+00 -0.10000000000E+04  0.10000000000E+04  0.00000000000E+00 0.  1.
    9000005    2    1    2  501    0  0.27309230660E+02 -0.31145132036E+02 -0.75360385678E+03  0.75474730449E+03  0.29845204553E+01 0.  0.
         13    1    3    3    0    0  0.40294156799E+01 -0.43065412516E+01 -0.12731604867E+03  0.12745257446E+03  0.00000000000E+00 0.  1.
          3    1    3    3  501    0  0.23279814980E+02 -0.26838590785E+02 -0.62628780811E+03  0.62729473003E+03  0.00000000000E+00 0.  1.
         -1    1    1    2    0  502 -0.27309230660E+02  0.31145132036E+02 -0.24407946118E+03  0.24756937755E+03  0.00000000000E+00 0. -1.
<mgrwt>
<rscale>  1 0.30000000E+03</rscale>
<asrwt>0</asrwt>
<pdfrwt beam="1">  1       21 0.84243161E-02 0.30000000E+03</pdfrwt>
<pdfrwt beam="2">0</pdfrwt>
<totfact> 0.11663713E+04</totfact>
</mgrwt>
</event>
<event>
 6    1  0.1273846E-001  0.3000000E+03  0.7818608E-02  0.1093470E+00
         21   -1    0    0  501  502  0.00000000000E+00  0.00000000000E+00  0.43618767630E+01  0.43618767630E+01  0.00000000000E+00 0. -1.
         13   -1    0    0    0    0 -0.00000000000E+00 -0.00000000000E+00 -0.10000000000E+04  0.10000000000E+04  0.00000000000E+00 0.  1.
    9000005    2    1    2  501    0 -0.29904588471E+02 -0.30242989640E+02 -0.11429758364E+03  0.12199570018E+03  0.31765395167E+01 0.  0.
         13    1    3    3    0    0 -0.17469680512E+02 -0.15476728155E+02 -0.61532963969E+02  0.65810519725E+02  0.00000000000E+00 0.  1.
          3    1    3    3  501    0 -0.12434907959E+02 -0.14766261485E+02 -0.52764619666E+02  0.56185180455E+02  0.00000000000E+00 0.  1.
         -1    1    1    2    0  502  0.29904588471E+02  0.30242989640E+02 -0.88134053960E+03  0.88236617658E+03  0.00000000000E+00 0. -1.
<mgrwt>
<rscale>  1 0.30000000E+03</rscale>
<asrwt>0</asrwt>
<pdfrwt beam="1">  1       21 0.15861403E-01 0.30000000E+03</pdfrwt>
<pdfrwt beam="2">0</pdfrwt>
<totfact> 0.37123605E+03</totfact>
</mgrwt>
</event>
<event>
 6    1  0.1273846E-001  0.3000000E+03  0.7818608E-02  0.1093470E+00
         21   -1    0    0  501  502  0.00000000000E+00  0.00000000000E+00  0.18117291271E+01  0.18117291271E+01  0.00000000000E+00 0. -1.
         13   -1    0    0    0    0 -0.00000000000E+00 -0.00000000000E+00 -0.10000000000E+04  0.10000000000E+04  0.00000000000E+00 0.  1.
    9000005    2    1    2  501    0  0.34651189587E+02 -0.16010707213E+02 -0.71997020758E+03  0.72098733840E+03  0.29316623359E+01 0.  0.
         13    1    3    3    0    0  0.10237238699E+02 -0.35468945770E+01 -0.18979194129E+03  0.19010092713E+03  0.00000000000E+00 0.  1.
          3    1    3    3  501    0  0.24413950888E+02 -0.12463812636E+02 -0.53017826629E+03  0.53088641127E+03  0.00000000000E+00 0.  1.
         -1    1    1    2    0  502 -0.34651189587E+02  0.16010707213E+02 -0.27821806330E+03  0.28082439073E+03  0.00000000000E+00 0. -1.
<mgrwt>
<rscale>  1 0.30000000E+03</rscale>
<asrwt>0</asrwt>
<pdfrwt beam="1">  1       21 0.65881198E-02 0.30000000E+03</pdfrwt>
<pdfrwt beam="2">0</pdfrwt>
<totfact> 0.17927000E+04</totfact>
</mgrwt>
</event>
<event>
 6    1  0.1273846E-001  0.3000000E+03  0.7818608E-02  0.1093470E+00
         21   -1    0    0  501  502  0.00000000000E+00  0.00000000000E+00  0.98959009398E+01  0.98959009398E+01  0.00000000000E+00 0. -1.
         13   -1    0    0    0    0 -0.00000000000E+00 -0.00000000000E+00 -0.10000000000E+04  0.10000000000E+04  0.00000000000E+00 0.  1.
    9000005    2    1    2  501    0  0.88903877024E+00  0.36251158124E+02 -0.96524256376E+03  0.96592963213E+03  0.34511572112E+01 0.  0.
         13    1    3    3    0    0  0.61420721115E+00  0.25070875111E+01 -0.89314382170E+02  0.89351673744E+02  0.00000000000E+00 0.  1.
          1    1    3    3  501    0  0.27483155909E+00  0.33744070613E+02 -0.87592818159E+03  0.87657795839E+03  0.00000000000E+00 0.  1.
         -3    1    1    2    0  502 -0.88903877024E+00 -0.36251158124E+02 -0.24861535303E+02  0.43966268808E+02  0.00000000000E+00 0. -1.
<mgrwt>
<rscale>  1 0.30000000E+03</rscale>
<asrwt>0</asrwt>
<pdfrwt beam="1">  1       21 0.35985170E-01 0.30000000E+03</pdfrwt>
<pdfrwt beam="2">0</pdfrwt>
<totfact> 0.75179420E+02</totfact>
</mgrwt>
</event>
<event>
 6    1  0.1273846E-001  0.3000000E+03  0.7818608E-02  0.1093470E+00
         21   -1    0    0  501  502  0.00000000000E+00  0.00000000000E+00  0.14549491840E+01  0.14549491840E+01  0.00000000000E+00 0. -1.
         13   -1    0    0    0    0 -0.00000000000E+00 -0.00000000000E+00 -0.10000000000E+04  0.10000000000E+04  0.00000000000E+00 0.  1.
    9000005    2    1    2  501    0 -0.27289925801E+02  0.25387080084E+02 -0.40629836668E+03  0.40803656494E+03  0.51216870289E+01 0.  0.
         13    1    3    3    0    0 -0.22802092221E+02  0.22851196514E+02 -0.33484904878E+03  0.33640154289E+03  0.00000000000E+00 0.  1.
          3    1    3    3  501    0 -0.44878335798E+01  0.25358835700E+01 -0.71449317899E+02  0.71635022049E+02  0.00000000000E+00 0.  1.
         -3    1    1    2    0  502  0.27289925801E+02 -0.25387080084E+02 -0.59224668414E+03  0.59341838424E+03  0.00000000000E+00 0. -1.
<mgrwt>
<rscale>  1 0.30000000E+03</rscale>
<asrwt>0</asrwt>
<pdfrwt beam="1">  1       21 0.52907355E-02 0.30000000E+03</pdfrwt>
<pdfrwt beam="2">0</pdfrwt>
<totfact> 0.26155007E+04</totfact>
</mgrwt>
</event>
<event>
 6    1  0.1273846E-001  0.3000000E+03  0.7818608E-02  0.1093470E+00
         21   -1    0    0  501  502  0.00000000000E+00  0.00000000000E+00  0.10007585743E+01  0.10007585743E+01  0.00000000000E+00 0. -1.
         13   -1    0    0    0    0 -0.00000000000E+00 -0.00000000000E+00 -0.10000000000E+04  0.10000000000E+04  0.00000000000E+00 0.  1.
    9000005    2    1    2  501    0 -0.74459632501E+01 -0.30471233671E+02 -0.55488119766E+03  0.55577634859E+03  0.32043224181E+01 0.  0.
         13    1    3    3    0    0 -0.44957680949E+01 -0.15670869443E+02 -0.26224484511E+03  0.26275111202E+03  0.00000000000E+00 0.  1.
          3    1    3    3  501    0 -0.29501951552E+01 -0.14800364228E+02 -0.29263635255E+03  0.29302523657E+03  0.00000000000E+00 0.  1.
         -3    1    1    2    0  502  0.74459632501E+01  0.30471233671E+02 -0.44411804376E+03  0.44522440999E+03  0.00000000000E+00 0. -1.
<mgrwt>
<rscale>  1 0.30000000E+03</rscale>
<asrwt>0</asrwt>
<pdfrwt beam="1">  1       21 0.36391298E-02 0.30000000E+03</pdfrwt>
<pdfrwt beam="2">0</pdfrwt>
<totfact> 0.49288455E+04</totfact>
</mgrwt>
</event>
<event>
 6    1  0.1273846E-001  0.3000000E+03  0.7818608E-02  0.1093470E+00
         21   -1    0    0  501  502  0.00000000000E+00  0.00000000000E+00  0.96718712664E+00  0.96718712664E+00  0.00000000000E+00 0. -1.
         13   -1    0    0    0    0 -0.00000000000E+00 -0.00000000000E+00 -0.10000000000E+04  0.10000000000E+04  0.00000000000E+00 0.  1.
    9000005    2    1    2  501    0 -0.29204716232E+02  0.10363942539E+02 -0.52675721857E+03  0.52767598319E+03  0.29067435661E+01 0.  0.
         13    1    3    3    0    0 -0.11886357631E+02  0.27218588867E+01 -0.20901666110E+03  0.20937205790E+03  0.00000000000E+00 0.  1.
          1    1    3    3  501    0 -0.17318358601E+02  0.76420836519E+01 -0.31774055747E+03  0.31830392528E+03  0.00000000000E+00 0.  1.
         -1    1    1    2    0  502  0.29204716232E+02 -0.10363942539E+02 -0.47227559430E+03  0.47329120394E+03  0.00000000000E+00 0. -1.
<mgrwt>
<rscale>  1 0.30000000E+03</rscale>
<asrwt>0</asrwt>
<pdfrwt beam="1">  1       21 0.35170515E-02 0.30000000E+03</pdfrwt>
<pdfrwt beam="2">0</pdfrwt>
<totfact> 0.52190275E+04</totfact>
</mgrwt>
</event>
<event>
 6    1  0.1273846E-001  0.3000000E+03  0.7818608E-02  0.1093470E+00
         21   -1    0    0  501  502  0.00000000000E+00  0.00000000000E+00  0.11077420639E+01  0.11077420639E+01  0.00000000000E+00 0. -1.
         13   -1    0    0    0    0 -0.00000000000E+00 -0.00000000000E+00 -0.10000000000E+04  0.10000000000E+04  0.00000000000E+00 0.  1.
    9000005    2    1    2  501    0  0.18645264370E+02 -0.26080750721E+02 -0.62998579588E+03  0.63081079475E+03  0.35077519694E+01 0.  0.
         13    1    3    3    0    0  0.17497610095E+02 -0.22619234202E+02 -0.55430978436E+03  0.55504696482E+03  0.00000000000E+00 0.  1.
          3    1    3    3  501    0  0.11476542747E+01 -0.34615165189E+01 -0.75676011518E+02  0.75763829933E+02  0.00000000000E+00 0.  1.
         -3    1    1    2    0  502 -0.18645264370E+02  0.26080750721E+02 -0.36890646205E+03  0.37029694731E+03  0.00000000000E+00 0. -1.
<mgrwt>
<rscale>  1 0.30000000E+03</rscale>
<asrwt>0</asrwt>
<pdfrwt beam="1">  1       21 0.40281615E-02 0.30000000E+03</pdfrwt>
<pdfrwt beam="2">0</pdfrwt>
<totfact> 0.41553384E+04</totfact>
</mgrwt>
</event>
<event>
 6    1  0.1273846E-001  0.3000000E+03  0.7818608E-02  0.1093470E+00
         21   -1    0    0  501  502  0.00000000000E+00  0.00000000000E+00  0.25048145642E+01  0.25048145642E+01  0.00000000000E+00 0. -1.
         13   -1    0    0    0    0 -0.00000000000E+00 -0.00000000000E+00 -0.10000000000E+04  0.10000000000E+04  0.00000000000E+00 0.  1.
    9000005    2    1    2  501    0  0.11643223381E+02 -0.40992448228E+02 -0.24152548822E+03  0.24533499968E+03  0.62253631140E+01 0.  0.
         13    1    3    3    0    0  0.11763148441E+02 -0.32417498910E+02 -0.19485880127E+03  0.19788688266E+03  0.00000000000E+00 0.  1.
          1    1    3    3  501    0 -0.11992506006E+00 -0.85749493183E+01 -0.46666686948E+02  0.47448117018E+02  0.00000000000E+00 0.  1.
         -1    1    1    2    0  502 -0.11643223381E+02  0.40992448228E+02 -0.75596969721E+03  0.75716981488E+03  0.00000000000E+00 0. -1.
<mgrwt>
<rscale>  1 0.30000000E+03</rscale>
<asrwt>0</asrwt>
<pdfrwt beam="1">  1       21 0.91084358E-02 0.30000000E+03</pdfrwt>
<pdfrwt beam="2">0</pdfrwt>
<totfact> 0.10160086E+04</totfact>
</mgrwt>
</event>
<event>
 6    1  0.1273846E-001  0.3000000E+03  0.7818608E-02  0.1093470E+00
         21   -1    0    0  501  502  0.00000000000E+00  0.00000000000E+00  0.11986273762E+01  0.11986273762E+01  0.00000000000E+00 0. -1.
         13   -1    0    0    0    0 -0.00000000000E+00 -0.00000000000E+00 -0.10000000000E+04  0.10000000000E+04  0.00000000000E+00 0.  1.
    9000005    2    1    2  501    0 -0.30293173384E+02 -0.15866536628E+02 -0.57224783109E+03  0.57327649996E+03  0.29902976186E+01 0.  0.
         13    1    3    3    0    0 -0.28985504845E+01 -0.14964063599E+01 -0.41571370258E+02  0.41699156491E+02  0.00000000000E+00 0.  1.
          1    1    3    3  501    0 -0.27394622899E+02 -0.14370130269E+02 -0.53067646083E+03  0.53157734347E+03  0.00000000000E+00 0.  1.
         -1    1    1    2    0  502  0.30293173384E+02  0.15866536628E+02 -0.42655354153E+03  0.42792212742E+03  0.00000000000E+00 0. -1.
<mgrwt>
<rscale>  1 0.30000000E+03</rscale>
<asrwt>0</asrwt>
<pdfrwt beam="1">  1       21 0.43586542E-02 0.30000000E+03</pdfrwt>
<pdfrwt beam="2">0</pdfrwt>
<totfact> 0.36373301E+04</totfact>
</mgrwt>
</event>
<event>
 6    1  0.1273846E-001  0.3000000E+03  0.7818608E-02  0.1093470E+00
         21   -1    0    0  501  502  0.00000000000E+00  0.00000000000E+00  0.14405339248E+01  0.14405339248E+01  0.00000000000E+00 0. -1.
         13   -1    0    0    0    0 -0.00000000000E+00 -0.00000000000E+00 -0.10000000000E+04  0.10000000000E+04  0.00000000000E+00 0.  1.
    9000005    2    1    2  501    0  0.29960721707E+02  0.19394462944E+02 -0.66772155868E+03  0.66868309823E+03  0.33490147054E+01 0.  0.
         13    1    3    3    0    0  0.20433067820E+02  0.14980122004E+02 -0.46467653952E+03  0.46536673785E+03  0.00000000000E+00 0.  1.
          1    1    3    3  501    0  0.95276538865E+01  0.44143409395E+01 -0.20304501916E+03  0.20331636038E+03  0.00000000000E+00 0.  1.
         -3    1    1    2    0  502 -0.29960721707E+02 -0.19394462944E+02 -0.33083790740E+03  0.33275743569E+03  0.00000000000E+00 0. -1.
<mgrwt>
<rscale>  1 0.30000000E+03</rscale>
<asrwt>0</asrwt>
<pdfrwt beam="1">  1       21 0.52383162E-02 0.30000000E+03</pdfrwt>
<pdfrwt beam="2">0</pdfrwt>
<totfact> 0.26604048E+04</totfact>
</mgrwt>
</event>
<event>
 6    1  0.1273846E-001  0.3000000E+03  0.7818608E-02  0.1093470E+00
         21   -1    0    0  501  502  0.00000000000E+00  0.00000000000E+00  0.78570609802E+01  0.78570609802E+01  0.00000000000E+00 0. -1.
         13   -1    0    0    0    0 -0.00000000000E+00 -0.00000000000E+00 -0.10000000000E+04  0.10000000000E+04  0.00000000000E+00 0.  1.
    9000005    2    1    2  501    0 -0.46569973393E+02  0.34954874629E+02 -0.87595873149E+03  0.87789792986E+03  0.32357837676E+01 0.  0.
         13    1    3    3    0    0 -0.63984270839E+01  0.53456932938E+01 -0.11044100894E+03  0.11075528322E+03  0.00000000000E+00 0.  1.
          1    1    3    3  501    0 -0.40171546309E+02  0.29609181335E+02 -0.76551772255E+03  0.76714264664E+03  0.00000000000E+00 0.  1.
         -1    1    1    2    0  502  0.46569973393E+02 -0.34954874629E+02 -0.11618420753E+03  0.12995913112E+03  0.00000000000E+00 0. -1.
<mgrwt>
<rscale>  1 0.30000000E+03</rscale>
<asrwt>0</asrwt>
<pdfrwt beam="1">  1       21 0.28571191E-01 0.30000000E+03</pdfrwt>
<pdfrwt beam="2">0</pdfrwt>
<totfact> 0.11983826E+03</totfact>
</mgrwt>
</event>
<event>
 6    1  0.1273846E-001  0.3000000E+03  0.7818608E-02  0.1093470E+00
         21   -1    0    0  501  502  0.00000000000E+00  0.00000000000E+00  0.42928767367E+01  0.42928767367E+01  0.00000000000E+00 0. -1.
         13   -1    0    0    0    0 -0.00000000000E+00 -0.00000000000E+00 -0.10000000000E+04  0.10000000000E+04  0.00000000000E+00 0.  1.
    9000005    2    1    2  501    0  0.38096946180E+02  0.53097646514E+02 -0.52893005081E+03  0.53296329699E+03  0.34842384675E+01 0.  0.
         13    1    3    3    0    0  0.21912190858E+02  0.28567562950E+02 -0.30173711425E+03  0.30387750144E+03  0.00000000000E+00 0.  1.
          3    1    3    3  501    0  0.16184755323E+02  0.24530083564E+02 -0.22719293656E+03  0.22908579556E+03  0.00000000000E+00 0.  1.
         -1    1    1    2    0  502 -0.38096946180E+02 -0.53097646514E+02 -0.46677707246E+03  0.47132957975E+03  0.00000000000E+00 0. -1.
<mgrwt>
<rscale>  1 0.30000000E+03</rscale>
<asrwt>0</asrwt>
<pdfrwt beam="1">  1       21 0.15610494E-01 0.30000000E+03</pdfrwt>
<pdfrwt beam="2">0</pdfrwt>
<totfact> 0.38242165E+03</totfact>
</mgrwt>
</event>
<event>
 6    1  0.1273846E-001  0.3000000E+03  0.7818608E-02  0.1093470E+00
         21   -1    0    0  501  502  0.00000000000E+00  0.00000000000E+00  0.13122972805E+01  0.13122972805E+01  0.00000000000E+00 0. -1.
         13   -1    0    0    0    0 -0.00000000000E+00 -0.00000000000E+00 -0.10000000000E+04  0.10000000000E+04  0.00000000000E+00 0.  1.
    9000005    2    1    2  501    0 -0.24840542289E+02 -0.22888086461E+02 -0.67817798040E+03  0.67902764182E+03  0.34997449923E+01 0.  0.
         13    1    3    3    0    0 -0.17810810474E+02 -0.14280331859E+02 -0.44623971934E+03  0.44682327599E+03  0.00000000000E+00 0.  1.
          1    1    3    3  501    0 -0.70297318153E+01 -0.86077546017E+01 -0.23193826106E+03  0.23220436583E+03  0.00000000000E+00 0.  1.
         -1    1    1    2    0  502  0.24840542289E+02  0.22888086461E+02 -0.32050972232E+03  0.32228465546E+03  0.00000000000E+00 0. -1.
<mgrwt>
<rscale>  1 0.30000000E+03</rscale>
<asrwt>0</asrwt>
<pdfrwt beam="1">  1       21 0.47720002E-02 0.30000000E+03</pdfrwt>
<pdfrwt beam="2">0</pdfrwt>
<totfact> 0.31187437E+04</totfact>
</mgrwt>
</event>
<event>
 6    1  0.1273846E-001  0.3000000E+03  0.7818608E-02  0.1093470E+00
         21   -1    0    0  501  502  0.00000000000E+00  0.00000000000E+00  0.74712602187E+01  0.74712602187E+01  0.00000000000E+00 0. -1.
         13   -1    0    0    0    0 -0.00000000000E+00 -0.00000000000E+00 -0.10000000000E+04  0.10000000000E+04  0.00000000000E+00 0.  1.
    9000005    2    1    2  501    0  0.23746958796E+02 -0.55712883255E+02 -0.85560380538E+03  0.85775058338E+03  0.32168451965E+01 0.  0.
         13    1    3    3    0    0  0.12083374311E+02 -0.28851633353E+02 -0.41929457443E+03  0.42045970655E+03  0.00000000000E+00 0.  1.
          3    1    3    3  501    0  0.11663584485E+02 -0.26861249902E+02 -0.43630923095E+03  0.43729087683E+03  0.00000000000E+00 0.  1.
         -1    1    1    2    0  502 -0.23746958796E+02  0.55712883255E+02 -0.13692493440E+03  0.14972067684E+03  0.00000000000E+00 0. -1.
<mgrwt>
<rscale>  1 0.30000000E+03</rscale>
<asrwt>0</asrwt>
<pdfrwt beam="1">  1       21 0.27168276E-01 0.30000000E+03</pdfrwt>
<pdfrwt beam="2">0</pdfrwt>
<totfact> 0.13241237E+03</totfact>
</mgrwt>
</event>
<event>
 6    1  0.1273846E-001  0.3000000E+03  0.7818608E-02  0.1093470E+00
         21   -1    0    0  501  502  0.00000000000E+00  0.00000000000E+00  0.12977682600E+01  0.12977682600E+01  0.00000000000E+00 0. -1.
         13   -1    0    0    0    0 -0.00000000000E+00 -0.00000000000E+00 -0.10000000000E+04  0.10000000000E+04  0.00000000000E+00 0.  1.
    9000005    2    1    2  501    0 -0.26896942689E+02 -0.22180153371E+02 -0.62276699901E+03  0.62374948799E+03  0.30469621335E+01 0.  0.
         13    1    3    3    0    0 -0.23608845842E+02 -0.20019111683E+02 -0.53557228436E+03  0.53646604199E+03  0.00000000000E+00 0.  1.
          3    1    3    3  501    0 -0.32880968464E+01 -0.21610416880E+01 -0.87194714650E+02  0.87283445997E+02  0.00000000000E+00 0.  1.
         -3    1    1    2    0  502  0.26896942689E+02  0.22180153371E+02 -0.37593523273E+03  0.37754828027E+03  0.00000000000E+00 0. -1.
<mgrwt>
<rscale>  1 0.30000000E+03</rscale>
<asrwt>0</asrwt>
<pdfrwt beam="1">  1       21 0.47191673E-02 0.30000000E+03</pdfrwt>
<pdfrwt beam="2">0</pdfrwt>
<totfact> 0.31783622E+04</totfact>
</mgrwt>
</event>
<event>
 6    1  0.1273846E-001  0.3000000E+03  0.7818608E-02  0.1093470E+00
         21   -1    0    0  501  502  0.00000000000E+00  0.00000000000E+00  0.19902518821E+01  0.19902518821E+01  0.00000000000E+00 0. -1.
         13   -1    0    0    0    0 -0.00000000000E+00 -0.00000000000E+00 -0.10000000000E+04  0.10000000000E+04  0.00000000000E+00 0.  1.
    9000005    2    1    2  501    0 -0.21144582223E+02 -0.37948907612E+02 -0.60684035037E+03  0.60841597594E+03  0.52512855033E+01 0.  0.
         13    1    3    3    0    0 -0.86387032265E+01 -0.20647038985E+02 -0.32156344331E+03  0.32234139586E+03  0.00000000000E+00 0.  1.
          3    1    3    3  501    0 -0.12505878996E+02 -0.17301868627E+02 -0.28527690706E+03  0.28607458008E+03  0.00000000000E+00 0.  1.
         -1    1    1    2    0  502  0.21144582223E+02  0.37948907612E+02 -0.39116939775E+03  0.39357427594E+03  0.00000000000E+00 0. -1.
<mgrwt>
<rscale>  1 0.30000000E+03</rscale>
<asrwt>0</asrwt>
<pdfrwt beam="1">  1       21 0.72372948E-02 0.30000000E+03</pdfrwt>
<pdfrwt beam="2">0</pdfrwt>
<totfact> 0.15224541E+04</totfact>
</mgrwt>
</event>
<event>
 6    1  0.1273846E-001  0.3000000E+03  0.7818608E-02  0.1093470E+00
         21   -1    0    0  501  502  0.00000000000E+00  0.00000000000E+00  0.15101806801E+01  0.15101806801E+01  0.00000000000E+00 0. -1.
         13   -1    0    0    0    0 -0.00000000000E+00 -0.00000000000E+00 -0.10000000000E+04  0.10000000000E+04  0.00000000000E+00 0.  1.
    9000005    2    1    2  501    0  0.76178492522E+01  0.31130026943E+02 -0.78181652947E+03  0.78247953273E+03  0.31659426118E+01 0.  0.
         13    1    3    3    0    0  0.36219275367E+01  0.21059193839E+02 -0.51514381281E+03  0.51558680732E+03  0.00000000000E+00 0.  1.
          3    1    3    3  501    0  0.39959217155E+01  0.10070833104E+02 -0.26667271665E+03  0.26689272541E+03  0.00000000000E+00 0.  1.
         -1    1    1    2    0  502 -0.76178492522E+01 -0.31130026943E+02 -0.21667328985E+03  0.21903064795E+03  0.00000000000E+00 0. -1.
<mgrwt>
<rscale>  1 0.30000000E+03</rscale>
<asrwt>0</asrwt>
<pdfrwt beam="1">  1       21 0.54915777E-02 0.30000000E+03</pdfrwt>
<pdfrwt beam="2">0</pdfrwt>
<totfact> 0.24538542E+04</totfact>
</mgrwt>
</event>
<event>
 6    1  0.1273846E-001  0.3000000E+03  0.7818608E-02  0.1093470E+00
         21   -1    0    0  501  502  0.00000000000E+00  0.00000000000E+00  0.10255541062E+02  0.10255541062E+02  0.00000000000E+00 0. -1.
         13   -1    0    0    0    0 -0.00000000000E+00 -0.00000000000E+00 -0.10000000000E+04  0.10000000000E+04  0.00000000000E+00 0.  1.
    9000005    2    1    2  501    0  0.43971314375E+02  0.79736181944E+02 -0.71577233227E+03  0.72154797034E+03  0.31790982464E+01 0.  0.
         13    1    3    3    0    0  0.31278607704E+02  0.59168675324E+02 -0.51982696275E+03  0.52411769160E+03  0.00000000000E+00 0.  1.
          1    1    3    3  501    0  0.12692706671E+02  0.20567506620E+02 -0.19594536951E+03  0.19743027875E+03  0.00000000000E+00 0.  1.
         -1    1    1    2    0  502 -0.43971314375E+02 -0.79736181944E+02 -0.27397212667E+03  0.28870757072E+03  0.00000000000E+00 0. -1.
<mgrwt>
<rscale>  1 0.30000000E+03</rscale>
<asrwt>0</asrwt>
<pdfrwt beam="1">  1       21 0.37292955E-01 0.30000000E+03</pdfrwt>
<pdfrwt beam="2">0</pdfrwt>
<totfact> 0.69854935E+02</totfact>
</mgrwt>
</event>
<event>
 6    1  0.1273846E-001  0.3000000E+03  0.7818608E-02  0.1093470E+00
         21   -1    0    0  501  502  0.00000000000E+00  0.00000000000E+00  0.55191986500E+01  0.55191986500E+01  0.00000000000E+00 0. -1.
         13   -1    0    0    0    0 -0.00000000000E+00 -0.00000000000E+00 -0.10000000000E+04  0.10000000000E+04  0.00000000000E+00 0.  1.
    9000005    2    1    2  501    0  0.87681033071E+00 -0.44237454978E+02 -0.90105477085E+03  0.90214538962E+03  0.29803882141E+01 0.  0.
         13    1    3    3    0    0  0.19666587687E+01 -0.31657895314E+02 -0.64693807862E+03  0.64771519022E+03  0.00000000000E+00 0.  1.
          1    1    3    3  501    0 -0.10898484380E+01 -0.12579559664E+02 -0.25411669223E+03  0.25443019939E+03  0.00000000000E+00 0.  1.
         -3    1    1    2    0  502 -0.87681033071E+00  0.44237454978E+02 -0.93426030501E+02  0.10337380903E+03  0.00000000000E+00 0. -1.
<mgrwt>
<rscale>  1 0.30000000E+03</rscale>
<asrwt>0</asrwt>
<pdfrwt beam="1">  1       21 0.20069856E-01 0.30000000E+03</pdfrwt>
<pdfrwt beam="2">0</pdfrwt>
<totfact> 0.23833018E+03</totfact>
</mgrwt>
</event>
<event>
 6    1  0.1273846E-001  0.3000000E+03  0.7818608E-02  0.1093470E+00
         21   -1    0    0  501  502  0.00000000000E+00  0.00000000000E+00  0.10810864890E+01  0.10810864890E+01  0.00000000000E+00 0. -1.
         13   -1    0    0    0    0 -0.00000000000E+00 -0.00000000000E+00 -0.10000000000E+04  0.10000000000E+04  0.00000000000E+00 0.  1.
    9000005    2    1    2  501    0 -0.29979169266E+02 -0.12445371355E+02 -0.55306664594E+03  0.55404878077E+03  0.58050636257E+01 0.  0.
         13    1    3    3    0    0 -0.13483556242E+02 -0.25955296085E+01 -0.21875132299E+03  0.21918185228E+03  0.00000000000E+00 0.  1.
          3    1    3    3  501    0 -0.16495613024E+02 -0.98498417463E+01 -0.33431532296E+03  0.33486692849E+03  0.00000000000E+00 0.  1.
         -1    1    1    2    0  502  0.29979169266E+02  0.12445371355E+02 -0.44585226757E+03  0.44703230571E+03  0.00000000000E+00 0. -1.
<mgrwt>
<rscale>  1 0.30000000E+03</rscale>
<asrwt>0</asrwt>
<pdfrwt beam="1">  1       21 0.39312319E-02 0.30000000E+03</pdfrwt>
<pdfrwt beam="2">0</pdfrwt>
<totfact> 0.43292827E+04</totfact>
</mgrwt>
</event>
<event>
 6    1  0.1273846E-001  0.3000000E+03  0.7818608E-02  0.1093470E+00
         21   -1    0    0  501  502  0.00000000000E+00  0.00000000000E+00  0.26061636298E+01  0.26061636298E+01  0.00000000000E+00 0. -1.
         13   -1    0    0    0    0 -0.00000000000E+00 -0.00000000000E+00 -0.10000000000E+04  0.10000000000E+04  0.00000000000E+00 0.  1.
    9000005    2    1    2  501    0 -0.31537838909E+02  0.11507808172E+02 -0.87617281706E+03  0.87682222008E+03  0.33667999247E+01 0.  0.
         13    1    3    3    0    0 -0.18046786494E+02  0.62336201215E+01 -0.45514688632E+03  0.45554717939E+03  0.00000000000E+00 0.  1.
          3    1    3    3  501    0 -0.13491052416E+02  0.52741880505E+01 -0.42102593074E+03  0.42127504069E+03  0.00000000000E+00 0.  1.
         -3    1    1    2    0  502  0.31537838909E+02 -0.11507808172E+02 -0.12122101931E+03  0.12578394355E+03  0.00000000000E+00 0. -1.
<mgrwt>
<rscale>  1 0.30000000E+03</rscale>
<asrwt>0</asrwt>
<pdfrwt beam="1">  1       21 0.94769786E-02 0.30000000E+03</pdfrwt>
<pdfrwt beam="2">0</pdfrwt>
<totfact> 0.94685533E+03</totfact>
</mgrwt>
</event>
