<event>
 6    1  0.1940992E-004  0.3000000E+03  0.7818608E-02  0.1093470E+00
          1   -1    0    0  502    0  0.00000000000E+00  0.00000000000E+00  0.40593036978E+02  0.40593036978E+02  0.00000000000E+00 0.  1.
         13   -1    0    0    0    0 -0.00000000000E+00 -0.00000000000E+00 -0.10000000000E+04  0.10000000000E+04  0.00000000000E+00 0.  1.
    9000005    2    1    2  501    0  0.20650448095E+02  0.66921392916E+01 -0.96212474881E+03  0.10187158321E+04  0.33410580438E+03 0.  0.
         13    1    3    3    0    0 -0.12653359500E+03 -0.52443102509E+01 -0.16483916862E+03  0.20787064479E+03  0.00000000000E+00 0.  1.
          1    1    3    3  501    0  0.14718404310E+03  0.11936449543E+02 -0.79728558019E+03  0.81084518729E+03  0.00000000000E+00 0.  1.
         21    1    1    2  502  501 -0.20650448095E+02 -0.66921392916E+01  0.27177857839E+01  0.21877204904E+02  0.00000000000E+00 0. -1.
<mgrwt>
<rscale>  1 0.30000000E+03</rscale>
<asrwt>0</asrwt>
<pdfrwt beam="1">  1        1 0.14761135E+00 0.30000000E+03</pdfrwt>
<pdfrwt beam="2">0</pdfrwt>
<totfact> 0.18476234E+01</totfact>
</mgrwt>
</event>
<event>
 6    1  0.1940992E-004  0.3000000E+03  0.7818608E-02  0.1093470E+00
          1   -1    0    0  502    0  0.00000000000E+00  0.00000000000E+00  0.18633464314E+02  0.18633464314E+02  0.00000000000E+00 0.  1.
         13   -1    0    0    0    0 -0.00000000000E+00 -0.00000000000E+00 -0.10000000000E+04  0.10000000000E+04  0.00000000000E+00 0.  1.
    9000005    2    1    2  501    0  0.27905714370E+02 -0.23689766512E+02 -0.95702179677E+03  0.97467211487E+03  0.18098364038E+03 0.  0.
         13    1    3    3    0    0  0.22153357527E+02 -0.92314764180E+02 -0.76113397340E+03  0.76703175450E+03  0.00000000000E+00 0.  1.
          3    1    3    3  501    0  0.57523568429E+01  0.68624997668E+02 -0.19588782337E+03  0.20764036038E+03  0.00000000000E+00 0.  1.
         21    1    1    2  502  501 -0.27905714370E+02  0.23689766512E+02 -0.24344738917E+02  0.43961349443E+02  0.00000000000E+00 0.  1.
<mgrwt>
<rscale>  1 0.30000000E+03</rscale>
<asrwt>0</asrwt>
<pdfrwt beam="1">  1        1 0.67758195E-01 0.30000000E+03</pdfrwt>
<pdfrwt beam="2">0</pdfrwt>
<totfact> 0.58925015E+01</totfact>
</mgrwt>
</event>
<event>
 6    1  0.1940992E-004  0.3000000E+03  0.7818608E-02  0.1093470E+00
          1   -1    0    0  502    0  0.00000000000E+00  0.00000000000E+00  0.28559525904E+02  0.28559525904E+02  0.00000000000E+00 0.  1.
         13   -1    0    0    0    0 -0.00000000000E+00 -0.00000000000E+00 -0.10000000000E+04  0.10000000000E+04  0.00000000000E+00 0.  1.
    9000005    2    1    2  501    0 -0.47426739365E+01  0.97839666849E+01 -0.94787929678E+03  0.10026105753E+04  0.32654951463E+03 0.  0.
         13    1    3    3    0    0 -0.90838162013E+02  0.13815715278E+03 -0.38744539473E+03  0.42125159280E+03  0.00000000000E+00 0.  1.
          3    1    3    3  501    0  0.86095488076E+02 -0.12837318610E+03 -0.56043390205E+03  0.58135898251E+03  0.00000000000E+00 0.  1.
         21    1    1    2  502  501  0.47426739365E+01 -0.97839666849E+01 -0.23561177320E+02  0.25948950593E+02  0.00000000000E+00 0.  1.
<mgrwt>
<rscale>  1 0.30000000E+03</rscale>
<asrwt>0</asrwt>
<pdfrwt beam="1">  1        1 0.10385304E+00 0.30000000E+03</pdfrwt>
<pdfrwt beam="2">0</pdfrwt>
<totfact> 0.32375631E+01</totfact>
</mgrwt>
</event>
<event>
 6    1  0.1940992E-004  0.3000000E+03  0.7818608E-02  0.1093470E+00
          1   -1    0    0  502    0  0.00000000000E+00  0.00000000000E+00  0.51285376323E+02  0.51285376323E+02  0.00000000000E+00 0.  1.
         13   -1    0    0    0    0 -0.00000000000E+00 -0.00000000000E+00 -0.10000000000E+04  0.10000000000E+04  0.00000000000E+00 0.  1.
    9000005    2    1    2  501    0 -0.24078444311E+02  0.44191824473E+01 -0.96803833486E+03  0.10200971339E+04  0.32078130258E+03 0.  0.
         13    1    3    3    0    0 -0.15934895753E+03 -0.56567522715E+02 -0.43240535092E+03  0.46429124738E+03  0.00000000000E+00 0.  1.
          1    1    3    3  501    0  0.13527051322E+03  0.60986705163E+02 -0.53563298394E+03  0.55580588648E+03  0.00000000000E+00 0.  1.
         21    1    1    2  502  501  0.24078444311E+02 -0.44191824473E+01  0.19323711188E+02  0.31188242464E+02  0.00000000000E+00 0.  1.
<mgrwt>
<rscale>  1 0.30000000E+03</rscale>
<asrwt>0</asrwt>
<pdfrwt beam="1">  1        1 0.18649267E+00 0.30000000E+03</pdfrwt>
<pdfrwt beam="2">0</pdfrwt>
<totfact> 0.11886304E+01</totfact>
</mgrwt>
</event>
<event>
 6    1  0.1940992E-004  0.3000000E+03  0.7818608E-02  0.1093470E+00
          1   -1    0    0  502    0  0.00000000000E+00  0.00000000000E+00  0.39884364739E+02  0.39884364739E+02  0.00000000000E+00 0.  1.
         13   -1    0    0    0    0 -0.00000000000E+00 -0.00000000000E+00 -0.10000000000E+04  0.10000000000E+04  0.00000000000E+00 0.  1.
    9000005    2    1    2  501    0 -0.90833311202E+01 -0.24358388173E+02 -0.96125855708E+03  0.10138623693E+04  0.32128344535E+03 0.  0.
         13    1    3    3    0    0  0.10022875172E+03 -0.13411271358E+03 -0.49743827410E+03  0.52485889452E+03  0.00000000000E+00 0.  1.
          3    1    3    3  501    0 -0.10931208284E+03  0.10975432541E+03 -0.46382028298E+03  0.48900347474E+03  0.00000000000E+00 0.  1.
         21    1    1    2  502  501  0.90833311202E+01  0.24358388173E+02  0.11429218190E+01  0.26021995483E+02  0.00000000000E+00 0.  1.
<mgrwt>
<rscale>  1 0.30000000E+03</rscale>
<asrwt>0</asrwt>
<pdfrwt beam="1">  1        1 0.14503436E+00 0.30000000E+03</pdfrwt>
<pdfrwt beam="2">0</pdfrwt>
<totfact> 0.19048416E+01</totfact>
</mgrwt>
</event>
<event>
 6    1  0.1940992E-004  0.3000000E+03  0.7818608E-02  0.1093470E+00
          1   -1    0    0  502    0  0.00000000000E+00  0.00000000000E+00  0.46056780217E+02  0.46056780217E+02  0.00000000000E+00 0.  1.
         13   -1    0    0    0    0 -0.00000000000E+00 -0.00000000000E+00 -0.10000000000E+04  0.10000000000E+04  0.00000000000E+00 0.  1.
    9000005    2    1    2  501    0 -0.38915260076E+02 -0.85415235410E+01 -0.95131616188E+03  0.10061286382E+04  0.32512311772E+03 0.  0.
         13    1    3    3    0    0  0.12405906669E+03 -0.76959027060E+02 -0.51717103286E+03  0.53738182060E+03  0.00000000000E+00 0.  1.
          3    1    3    3  501    0 -0.16297432676E+03  0.68417503519E+02 -0.43414512901E+03  0.46874681761E+03  0.00000000000E+00 0.  1.
         21    1    1    2  502  501  0.38915260076E+02  0.85415235410E+01 -0.26270579048E+01  0.39928142011E+02  0.00000000000E+00 0. -1.
<mgrwt>
<rscale>  1 0.30000000E+03</rscale>
<asrwt>0</asrwt>
<pdfrwt beam="1">  1        1 0.16747955E+00 0.30000000E+03</pdfrwt>
<pdfrwt beam="2">0</pdfrwt>
<totfact> 0.14699000E+01</totfact>
</mgrwt>
</event>
<event>
 6    1  0.1940992E-004  0.3000000E+03  0.7818608E-02  0.1093470E+00
          1   -1    0    0  502    0  0.00000000000E+00  0.00000000000E+00  0.31273923783E+02  0.31273923783E+02  0.00000000000E+00 0.  1.
         13   -1    0    0    0    0 -0.00000000000E+00 -0.00000000000E+00 -0.10000000000E+04  0.10000000000E+04  0.00000000000E+00 0.  1.
    9000005    2    1    2  501    0 -0.10578595140E+02 -0.79199239731E+00 -0.96548973880E+03  0.10201830353E+04  0.32937889413E+03 0.  0.
         13    1    3    3    0    0  0.12807026759E+03 -0.48567997419E+02 -0.73018633078E+03  0.74292188114E+03  0.00000000000E+00 0.  1.
          3    1    3    3  501    0 -0.13864886273E+03  0.47776005021E+02 -0.23530340801E+03  0.27726115418E+03  0.00000000000E+00 0.  1.
         21    1    1    2  502  501  0.10578595140E+02  0.79199239731E+00 -0.32363374208E+01  0.11090888467E+02  0.00000000000E+00 0.  1.
<mgrwt>
<rscale>  1 0.30000000E+03</rscale>
<asrwt>0</asrwt>
<pdfrwt beam="1">  1        1 0.11372360E+00 0.30000000E+03</pdfrwt>
<pdfrwt beam="2">0</pdfrwt>
<totfact> 0.28244701E+01</totfact>
</mgrwt>
</event>
<event>
 6    1  0.1940992E-004  0.3000000E+03  0.7818608E-02  0.1093470E+00
          1   -1    0    0  502    0  0.00000000000E+00  0.00000000000E+00  0.39057135472E+02  0.39057135472E+02  0.00000000000E+00 0.  1.
         13   -1    0    0    0    0 -0.00000000000E+00 -0.00000000000E+00 -0.10000000000E+04  0.10000000000E+04  0.00000000000E+00 0.  1.
    9000005    2    1    2  501    0 -0.48236771652E+02  0.38073000958E+02 -0.82404381661E+03  0.88899818418E+03  0.32786158702E+03 0.  0.
         13    1    3    3    0    0  0.55877554114E+02 -0.71206050995E+02 -0.56379110937E+02  0.10663586124E+03  0.00000000000E+00 0.  1.
          3    1    3    3  501    0 -0.10411432577E+03  0.10927905195E+03 -0.76766470568E+03  0.78236232295E+03  0.00000000000E+00 0.  1.
         21    1    1    2  502  501  0.48236771652E+02 -0.38073000958E+02 -0.13689904792E+03  0.15005895129E+03  0.00000000000E+00 0. -1.
<mgrwt>
<rscale>  1 0.30000000E+03</rscale>
<asrwt>0</asrwt>
<pdfrwt beam="1">  1        1 0.14202625E+00 0.30000000E+03</pdfrwt>
<pdfrwt beam="2">0</pdfrwt>
<totfact> 0.19744859E+01</totfact>
</mgrwt>
</event>
<event>
 6    1  0.1940992E-004  0.3000000E+03  0.7818608E-02  0.1093470E+00
          3   -1    0    0  502    0  0.00000000000E+00  0.00000000000E+00  0.31095976663E+02  0.31095976663E+02  0.00000000000E+00 0.  1.
         13   -1    0    0    0    0 -0.00000000000E+00 -0.00000000000E+00 -0.10000000000E+04  0.10000000000E+04  0.00000000000E+00 0.  1.
    9000005    2    1    2  501    0  0.31748610935E+02 -0.72657007578E+02 -0.78887058525E+03  0.83437522566E+03  0.25995807714E+03 0.  0.
         13    1    3    3    0    0  0.71566849857E+02 -0.28604057529E+02 -0.47294627441E+02  0.90425593116E+02  0.00000000000E+00 0.  1.
          1    1    3    3  501    0 -0.39818238922E+02 -0.44052950049E+02 -0.74157595781E+03  0.74394963254E+03  0.00000000000E+00 0.  1.
         21    1    1    2  502  501 -0.31748610935E+02  0.72657007578E+02 -0.18003343809E+03  0.19672075100E+03  0.00000000000E+00 0.  1.
<mgrwt>
<rscale>  1 0.30000000E+03</rscale>
<asrwt>0</asrwt>
<pdfrwt beam="1">  1        3 0.11307652E+00 0.30000000E+03</pdfrwt>
<pdfrwt beam="2">0</pdfrwt>
<totfact> 0.27795596E+00</totfact>
</mgrwt>
</event>
<event>
 6    1  0.1940992E-004  0.3000000E+03  0.7818608E-02  0.1093470E+00
          1   -1    0    0  502    0  0.00000000000E+00  0.00000000000E+00  0.32673468171E+02  0.32673468171E+02  0.00000000000E+00 0.  1.
         13   -1    0    0    0    0 -0.00000000000E+00 -0.00000000000E+00 -0.10000000000E+04  0.10000000000E+04  0.00000000000E+00 0.  1.
    9000005    2    1    2  501    0 -0.47668491834E+01  0.17377426821E+02 -0.96134350499E+03  0.10136867775E+04  0.32102157309E+03 0.  0.
         13    1    3    3    0    0 -0.12254909932E+03  0.89151696350E+02 -0.71940365706E+03  0.73519244317E+03  0.00000000000E+00 0.  1.
          1    1    3    3  501    0  0.11778225013E+03 -0.71774269529E+02 -0.24193984794E+03  0.27849433429E+03  0.00000000000E+00 0.  1.
         21    1    1    2  502  501  0.47668491834E+01 -0.17377426821E+02 -0.59830268349E+01  0.18986690711E+02  0.00000000000E+00 0. -1.
<mgrwt>
<rscale>  1 0.30000000E+03</rscale>
<asrwt>0</asrwt>
<pdfrwt beam="1">  1        1 0.11881286E+00 0.30000000E+03</pdfrwt>
<pdfrwt beam="2">0</pdfrwt>
<totfact> 0.26402019E+01</totfact>
</mgrwt>
</event>
<event>
 6    1  0.1940992E-004  0.3000000E+03  0.7818608E-02  0.1093470E+00
          1   -1    0    0  502    0  0.00000000000E+00  0.00000000000E+00  0.32537439067E+02  0.32537439067E+02  0.00000000000E+00 0.  1.
         13   -1    0    0    0    0 -0.00000000000E+00 -0.00000000000E+00 -0.10000000000E+04  0.10000000000E+04  0.00000000000E+00 0.  1.
    9000005    2    1    2  501    0 -0.54208403653E+01  0.21080407354E+02 -0.90777745963E+03  0.96900728558E+03  0.33829193637E+03 0.  0.
         13    1    3    3    0    0 -0.45254189741E+02  0.19322856359E+02 -0.92447242189E+03  0.92578106122E+03  0.00000000000E+00 0.  1.
          3    1    3    3  501    0  0.39833349376E+02  0.17575509952E+01  0.16694962261E+02  0.43226224365E+02  0.00000000000E+00 0.  1.
         21    1    1    2  502  501  0.54208403653E+01 -0.21080407354E+02 -0.59685101300E+02  0.63530153484E+02  0.00000000000E+00 0.  1.
<mgrwt>
<rscale>  1 0.30000000E+03</rscale>
<asrwt>0</asrwt>
<pdfrwt beam="1">  1        1 0.11831821E+00 0.30000000E+03</pdfrwt>
<pdfrwt beam="2">0</pdfrwt>
<totfact> 0.26573720E+01</totfact>
</mgrwt>
</event>
<event>
 6    1  0.1940992E-004  0.3000000E+03  0.7818608E-02  0.1093470E+00
          1   -1    0    0  502    0  0.00000000000E+00  0.00000000000E+00  0.44373650547E+02  0.44373650547E+02  0.00000000000E+00 0.  1.
         13   -1    0    0    0    0 -0.00000000000E+00 -0.00000000000E+00 -0.10000000000E+04  0.10000000000E+04  0.00000000000E+00 0.  1.
    9000005    2    1    2  501    0 -0.17287674078E+02  0.15117390891E+02 -0.96522784159E+03  0.10194821292E+04  0.32734023042E+03 0.  0.
         13    1    3    3    0    0 -0.89138323295E+02 -0.76541991368E+02 -0.12626335574E+03  0.17247246773E+03  0.00000000000E+00 0.  1.
          3    1    3    3  501    0  0.71850649217E+02  0.91659382259E+02 -0.83896448585E+03  0.84700966149E+03  0.00000000000E+00 0.  1.
         21    1    1    2  502  501  0.17287674078E+02 -0.15117390891E+02  0.96014921373E+01  0.24891521320E+02  0.00000000000E+00 0.  1.
<mgrwt>
<rscale>  1 0.30000000E+03</rscale>
<asrwt>0</asrwt>
<pdfrwt beam="1">  1        1 0.16135907E+00 0.30000000E+03</pdfrwt>
<pdfrwt beam="2">0</pdfrwt>
<totfact> 0.15756494E+01</totfact>
</mgrwt>
</event>
<event>
 6    1  0.1940992E-004  0.3000000E+03  0.7818608E-02  0.1093470E+00
          1   -1    0    0  502    0  0.00000000000E+00  0.00000000000E+00  0.25030945813E+02  0.25030945813E+02  0.00000000000E+00 0.  1.
         13   -1    0    0    0    0 -0.00000000000E+00 -0.00000000000E+00 -0.10000000000E+04  0.10000000000E+04  0.00000000000E+00 0.  1.
    9000005    2    1    2  501    0  0.50833084532E+01 -0.21763927684E+02 -0.93076143973E+03  0.97549488068E+03  0.29115957132E+03 0.  0.
         13    1    3    3    0    0  0.98356247382E+02  0.95907405412E+02 -0.53040766802E+03  0.54790918600E+03  0.00000000000E+00 0.  1.
          1    1    3    3  501    0 -0.93272938929E+02 -0.11767133310E+03 -0.40035377171E+03  0.42758569468E+03  0.00000000000E+00 0.  1.
         21    1    1    2  502  501 -0.50833084532E+01  0.21763927684E+02 -0.44207614456E+02  0.49536065134E+02  0.00000000000E+00 0.  1.
<mgrwt>
<rscale>  1 0.30000000E+03</rscale>
<asrwt>0</asrwt>
<pdfrwt beam="1">  1        1 0.91021813E-01 0.30000000E+03</pdfrwt>
<pdfrwt beam="2">0</pdfrwt>
<totfact> 0.39198420E+01</totfact>
</mgrwt>
</event>
<event>
 6    1  0.1940992E-004  0.3000000E+03  0.7818608E-02  0.1093470E+00
          1   -1    0    0  502    0  0.00000000000E+00  0.00000000000E+00  0.28394602903E+02  0.28394602903E+02  0.00000000000E+00 0.  1.
         13   -1    0    0    0    0 -0.00000000000E+00 -0.00000000000E+00 -0.10000000000E+04  0.10000000000E+04  0.00000000000E+00 0.  1.
    9000005    2    1    2  501    0 -0.58742406889E+01 -0.12575602346E+02 -0.95915207804E+03  0.10097468783E+04  0.31531475847E+03 0.  0.
         13    1    3    3    0    0  0.13325220634E+03 -0.47371851569E+02 -0.69433129833E+03  0.70858746437E+03  0.00000000000E+00 0.  1.
          1    1    3    3  501    0 -0.13912644703E+03  0.34796249223E+02 -0.26482077971E+03  0.30115941391E+03  0.00000000000E+00 0.  1.
         21    1    1    2  502  501  0.58742406889E+01  0.12575602346E+02 -0.12453319053E+02  0.18647724619E+02  0.00000000000E+00 0.  1.
<mgrwt>
<rscale>  1 0.30000000E+03</rscale>
<asrwt>0</asrwt>
<pdfrwt beam="1">  1        1 0.10325332E+00 0.30000000E+03</pdfrwt>
<pdfrwt beam="2">0</pdfrwt>
<totfact> 0.32654022E+01</totfact>
</mgrwt>
</event>
<event>
 6    1  0.1940992E-004  0.3000000E+03  0.7818608E-02  0.1093470E+00
          1   -1    0    0  502    0  0.00000000000E+00  0.00000000000E+00  0.50614166644E+02  0.50614166644E+02  0.00000000000E+00 0.  1.
         13   -1    0    0    0    0 -0.00000000000E+00 -0.00000000000E+00 -0.10000000000E+04  0.10000000000E+04  0.00000000000E+00 0.  1.
    9000005    2    1    2  501    0  0.60404737016E+01 -0.14625853522E+02 -0.97050061578E+03  0.10242278643E+04  0.32698756842E+03 0.  0.
         13    1    3    3    0    0 -0.93200387418E+01  0.20589761058E+02  0.21671463989E+02  0.31312197847E+02  0.00000000000E+00 0.  1.
          1    1    3    3  501    0  0.15360512443E+02 -0.35215614580E+02 -0.99217207977E+03  0.99291566647E+03  0.00000000000E+00 0.  1.
         21    1    1    2  502  501 -0.60404737016E+01  0.14625853522E+02  0.21114782422E+02  0.26386302327E+02  0.00000000000E+00 0.  1.
<mgrwt>
<rscale>  1 0.30000000E+03</rscale>
<asrwt>0</asrwt>
<pdfrwt beam="1">  1        1 0.18405190E+00 0.30000000E+03</pdfrwt>
<pdfrwt beam="2">0</pdfrwt>
<totfact> 0.12212001E+01</totfact>
</mgrwt>
</event>
<event>
 6    1  0.1940992E-004  0.3000000E+03  0.7818608E-02  0.1093470E+00
          1   -1    0    0  502    0  0.00000000000E+00  0.00000000000E+00  0.32789463214E+02  0.32789463214E+02  0.00000000000E+00 0.  1.
         13   -1    0    0    0    0 -0.00000000000E+00 -0.00000000000E+00 -0.10000000000E+04  0.10000000000E+04  0.00000000000E+00 0.  1.
    9000005    2    1    2  501    0 -0.31373373793E+02 -0.14989760781E+02 -0.87477263756E+03  0.93402840447E+03  0.32553480831E+03 0.  0.
         13    1    3    3    0    0  0.22638485628E+02  0.14258558301E+03 -0.55500615873E+03  0.57347622945E+03  0.00000000000E+00 0.  1.
          3    1    3    3  501    0 -0.54011859421E+02 -0.15757534379E+03 -0.31976647883E+03  0.36055217502E+03  0.00000000000E+00 0.  1.
         21    1    1    2  502  501  0.31373373793E+02  0.14989760781E+02 -0.92437899225E+02  0.98761058746E+02  0.00000000000E+00 0. -1.
<mgrwt>
<rscale>  1 0.30000000E+03</rscale>
<asrwt>0</asrwt>
<pdfrwt beam="1">  1        1 0.11923466E+00 0.30000000E+03</pdfrwt>
<pdfrwt beam="2">0</pdfrwt>
<totfact> 0.26256791E+01</totfact>
</mgrwt>
</event>
<event>
 6    1  0.1940992E-004  0.3000000E+03  0.7818608E-02  0.1093470E+00
          1   -1    0    0  502    0  0.00000000000E+00  0.00000000000E+00  0.34622325031E+02  0.34622325031E+02  0.00000000000E+00 0.  1.
         13   -1    0    0    0    0 -0.00000000000E+00 -0.00000000000E+00 -0.10000000000E+04  0.10000000000E+04  0.00000000000E+00 0.  1.
    9000005    2    1    2  501    0  0.57371564037E+01  0.21930789099E+02 -0.94956821451E+03  0.10069851487E+04  0.33440308203E+03 0.  0.
         13    1    3    3    0    0 -0.90860562100E+02  0.14583260898E+03 -0.39862274031E+03  0.43407704463E+03  0.00000000000E+00 0.  1.
          1    1    3    3  501    0  0.96597718503E+02 -0.12390181988E+03 -0.55094547420E+03  0.57290810409E+03  0.00000000000E+00 0.  1.
         21    1    1    2  502  501 -0.57371564037E+01 -0.21930789099E+02 -0.15809460459E+02  0.27637176305E+02  0.00000000000E+00 0.  1.
<mgrwt>
<rscale>  1 0.30000000E+03</rscale>
<asrwt>0</asrwt>
<pdfrwt beam="1">  1        1 0.12589963E+00 0.30000000E+03</pdfrwt>
<pdfrwt beam="2">0</pdfrwt>
<totfact> 0.24096084E+01</totfact>
</mgrwt>
</event>
<event>
 6    1  0.1940992E-004  0.3000000E+03  0.7818608E-02  0.1093470E+00
          1   -1    0    0  502    0  0.00000000000E+00  0.00000000000E+00  0.70549091219E+02  0.70549091219E+02  0.00000000000E+00 0.  1.
         13   -1    0    0    0    0 -0.00000000000E+00 -0.00000000000E+00 -0.10000000000E+04  0.10000000000E+04  0.00000000000E+00 0.  1.
    9000005    2    1    2  501    0  0.27446070795E+02  0.28660087416E+02 -0.96510712961E+03  0.10172006752E+04  0.31888987834E+03 0.  0.
         13    1    3    3    0    0 -0.82962801297E+02  0.10970199685E+02 -0.85895243681E+03  0.86301938586E+03  0.00000000000E+00 0.  1.
          1    1    3    3  501    0  0.11040887209E+03  0.17689887731E+02 -0.10615469280E+03  0.15418128929E+03  0.00000000000E+00 0.  1.
         21    1    1    2  502  501 -0.27446070795E+02 -0.28660087416E+02  0.35656220826E+02  0.53348416063E+02  0.00000000000E+00 0.  1.
<mgrwt>
<rscale>  1 0.30000000E+03</rscale>
<asrwt>0</asrwt>
<pdfrwt beam="1">  1        1 0.25654269E+00 0.30000000E+03</pdfrwt>
<pdfrwt beam="2">0</pdfrwt>
<totfact> 0.55617005E+00</totfact>
</mgrwt>
</event>
<event>
 6    1  0.1940992E-004  0.3000000E+03  0.7818608E-02  0.1093470E+00
          1   -1    0    0  502    0  0.00000000000E+00  0.00000000000E+00  0.47346025661E+02  0.47346025661E+02  0.00000000000E+00 0.  1.
         13   -1    0    0    0    0 -0.00000000000E+00 -0.00000000000E+00 -0.10000000000E+04  0.10000000000E+04  0.00000000000E+00 0.  1.
    9000005    2    1    2  501    0 -0.17847431382E+02 -0.10110495920E+02 -0.97007243169E+03  0.10204358865E+04  0.31595588735E+03 0.  0.
         13    1    3    3    0    0  0.92508568433E+02  0.97704886633E+02 -0.24884987652E+03  0.28289634347E+03  0.00000000000E+00 0.  1.
          1    1    3    3  501    0 -0.11035599981E+03 -0.10781538255E+03 -0.72122255517E+03  0.73753954300E+03  0.00000000000E+00 0.  1.
         21    1    1    2  502  501  0.17847431382E+02  0.10110495920E+02  0.17418457349E+02  0.26910139187E+02  0.00000000000E+00 0. -1.
<mgrwt>
<rscale>  1 0.30000000E+03</rscale>
<asrwt>0</asrwt>
<pdfrwt beam="1">  1        1 0.17216773E+00 0.30000000E+03</pdfrwt>
<pdfrwt beam="2">0</pdfrwt>
<totfact> 0.13943376E+01</totfact>
</mgrwt>
</event>
<event>
 6    1  0.1940992E-004  0.3000000E+03  0.7818608E-02  0.1093470E+00
          1   -1    0    0  502    0  0.00000000000E+00  0.00000000000E+00  0.10073038214E+02  0.10073038214E+02  0.00000000000E+00 0.  1.
         13   -1    0    0    0    0 -0.00000000000E+00 -0.00000000000E+00 -0.10000000000E+04  0.10000000000E+04  0.00000000000E+00 0.  1.
    9000005    2    1    2  501    0  0.69153258145E+01  0.13820612368E+02 -0.98261519639E+03  0.99297646047E+03  0.14223500206E+03 0.  0.
         13    1    3    3    0    0 -0.29955630900E+01  0.76286200924E+02 -0.64357523612E+03  0.64808768110E+03  0.00000000000E+00 0.  1.
          1    1    3    3  501    0  0.99108889045E+01 -0.62465588556E+02 -0.33903996027E+03  0.34488877937E+03  0.00000000000E+00 0.  1.
         21    1    1    2  502  501 -0.69153258145E+01 -0.13820612368E+02 -0.73117653926E+01  0.17096577743E+02  0.00000000000E+00 0.  1.
<mgrwt>
<rscale>  1 0.30000000E+03</rscale>
<asrwt>0</asrwt>
<pdfrwt beam="1">  1        1 0.36629307E-01 0.30000000E+03</pdfrwt>
<pdfrwt beam="2">0</pdfrwt>
<totfact> 0.13260293E+02</totfact>
</mgrwt>
</event>
<event>
 6    1  0.1940992E-004  0.3000000E+03  0.7818608E-02  0.1093470E+00
          1   -1    0    0  502    0  0.00000000000E+00  0.00000000000E+00  0.47311072535E+02  0.47311072535E+02  0.00000000000E+00 0.  1.
         13   -1    0    0    0    0 -0.00000000000E+00 -0.00000000000E+00 -0.10000000000E+04  0.10000000000E+04  0.00000000000E+00 0.  1.
    9000005    2    1    2  501    0  0.39157209630E+02 -0.24836871770E+01 -0.95584285800E+03  0.10079486152E+04  0.31746714154E+03 0.  0.
         13    1    3    3    0    0 -0.12199792612E+03  0.64947225597E+01 -0.19451340615E+03  0.22969793332E+03  0.00000000000E+00 0.  1.
          3    1    3    3  501    0  0.16115513575E+03 -0.89784097367E+01 -0.76132945185E+03  0.77825068190E+03  0.00000000000E+00 0.  1.
         21    1    1    2  502  501 -0.39157209630E+02  0.24836871770E+01  0.31539305393E+01  0.39362457314E+02  0.00000000000E+00 0. -1.
<mgrwt>
<rscale>  1 0.30000000E+03</rscale>
<asrwt>0</asrwt>
<pdfrwt beam="1">  1        1 0.17204063E+00 0.30000000E+03</pdfrwt>
<pdfrwt beam="2">0</pdfrwt>
<totfact> 0.13963278E+01</totfact>
</mgrwt>
</event>
<event>
 6    1  0.1940992E-004  0.3000000E+03  0.7818608E-02  0.1093470E+00
          1   -1    0    0  502    0  0.00000000000E+00  0.00000000000E+00  0.20421432420E+02  0.20421432420E+02  0.00000000000E+00 0.  1.
         13   -1    0    0    0    0 -0.00000000000E+00 -0.00000000000E+00 -0.10000000000E+04  0.10000000000E+04  0.00000000000E+00 0.  1.
    9000005    2    1    2  501    0 -0.86372448610E+01  0.20227649581E+02 -0.95088304015E+03  0.98426630691E+03  0.25321502140E+03 0.  0.
         13    1    3    3    0    0 -0.12899898410E+03  0.13100844319E+02 -0.57837160839E+03  0.59272766716E+03  0.00000000000E+00 0.  1.
          3    1    3    3  501    0  0.12036173924E+03  0.71268052617E+01 -0.37251143176E+03  0.39153863975E+03  0.00000000000E+00 0.  1.
         21    1    1    2  502  501  0.86372448610E+01 -0.20227649581E+02 -0.28695527425E+02  0.36155125509E+02  0.00000000000E+00 0. -1.
<mgrwt>
<rscale>  1 0.30000000E+03</rscale>
<asrwt>0</asrwt>
<pdfrwt beam="1">  1        1 0.74259911E-01 0.30000000E+03</pdfrwt>
<pdfrwt beam="2">0</pdfrwt>
<totfact> 0.52026125E+01</totfact>
</mgrwt>
</event>
<event>
 6    1  0.1940992E-004  0.3000000E+03  0.7818608E-02  0.1093470E+00
          1   -1    0    0  502    0  0.00000000000E+00  0.00000000000E+00  0.50324307408E+02  0.50324307408E+02  0.00000000000E+00 0.  1.
         13   -1    0    0    0    0 -0.00000000000E+00 -0.00000000000E+00 -0.10000000000E+04  0.10000000000E+04  0.00000000000E+00 0.  1.
    9000005    2    1    2  501    0  0.93807370852E+02 -0.36350480335E+02 -0.81577976109E+03  0.88284505282E+03  0.32217633126E+03 0.  0.
         13    1    3    3    0    0  0.99890599328E+01  0.14046548305E+03 -0.30793460051E+03  0.33860604165E+03  0.00000000000E+00 0.  1.
          1    1    3    3  501    0  0.83818310919E+02 -0.17681596339E+03 -0.50784516058E+03  0.54423901117E+03  0.00000000000E+00 0.  1.
         21    1    1    2  502  501 -0.93807370852E+02  0.36350480335E+02 -0.13389593150E+03  0.16747925459E+03  0.00000000000E+00 0.  1.
<mgrwt>
<rscale>  1 0.30000000E+03</rscale>
<asrwt>0</asrwt>
<pdfrwt beam="1">  1        1 0.18299787E+00 0.30000000E+03</pdfrwt>
<pdfrwt beam="2">0</pdfrwt>
<totfact> 0.12355641E+01</totfact>
</mgrwt>
</event>
<event>
 6    1  0.1940992E-004  0.3000000E+03  0.7818608E-02  0.1093470E+00
          1   -1    0    0  502    0  0.00000000000E+00  0.00000000000E+00  0.17408144870E+02  0.17408144870E+02  0.00000000000E+00 0.  1.
         13   -1    0    0    0    0 -0.00000000000E+00 -0.00000000000E+00 -0.10000000000E+04  0.10000000000E+04  0.00000000000E+00 0.  1.
    9000005    2    1    2  501    0 -0.36549847300E+01  0.90862448934E+01 -0.94433970970E+03  0.97792212975E+03  0.25388636393E+03 0.  0.
         13    1    3    3    0    0 -0.10650957514E+03  0.36954291677E+01 -0.20123411137E+03  0.22771278702E+03  0.00000000000E+00 0.  1.
          1    1    3    3  501    0  0.10285459041E+03  0.53908157257E+01 -0.74310559832E+03  0.75020934273E+03  0.00000000000E+00 0.  1.
         21    1    1    2  502  501  0.36549847300E+01 -0.90862448934E+01 -0.38252145434E+02  0.39486015119E+02  0.00000000000E+00 0. -1.
<mgrwt>
<rscale>  1 0.30000000E+03</rscale>
<asrwt>0</asrwt>
<pdfrwt beam="1">  1        1 0.63302478E-01 0.30000000E+03</pdfrwt>
<pdfrwt beam="2">0</pdfrwt>
<totfact> 0.64563154E+01</totfact>
</mgrwt>
</event>
<event>
 6    1  0.1940992E-004  0.3000000E+03  0.7818608E-02  0.1093470E+00
          1   -1    0    0  502    0  0.00000000000E+00  0.00000000000E+00  0.31399215274E+02  0.31399215274E+02  0.00000000000E+00 0.  1.
         13   -1    0    0    0    0 -0.00000000000E+00 -0.00000000000E+00 -0.10000000000E+04  0.10000000000E+04  0.00000000000E+00 0.  1.
    9000005    2    1    2  501    0  0.86422463614E+01 -0.13359441172E+02 -0.95881692480E+03  0.10127206981E+04  0.32560736154E+03 0.  0.
         13    1    3    3    0    0  0.10099393451E+03  0.81243055090E+02 -0.77802085704E+03  0.78874372441E+03  0.00000000000E+00 0.  1.
          1    1    3    3  501    0 -0.92351688152E+02 -0.94602496262E+02 -0.18079606776E+03  0.22397697364E+03  0.00000000000E+00 0.  1.
         21    1    1    2  502  501 -0.86422463614E+01  0.13359441172E+02 -0.97838599249E+01  0.18678517222E+02  0.00000000000E+00 0. -1.
<mgrwt>
<rscale>  1 0.30000000E+03</rscale>
<asrwt>0</asrwt>
<pdfrwt beam="1">  1        1 0.11417921E+00 0.30000000E+03</pdfrwt>
<pdfrwt beam="2">0</pdfrwt>
<totfact> 0.28072550E+01</totfact>
</mgrwt>
</event>
<event>
 6    1  0.1940992E-004  0.3000000E+03  0.7818608E-02  0.1093470E+00
          3   -1    0    0  502    0  0.00000000000E+00  0.00000000000E+00  0.31166448065E+02  0.31166448065E+02  0.00000000000E+00 0.  1.
         13   -1    0    0    0    0 -0.00000000000E+00 -0.00000000000E+00 -0.10000000000E+04  0.10000000000E+04  0.00000000000E+00 0.  1.
    9000005    2    1    2  501    0 -0.93608318470E+01  0.25427706739E+01 -0.96239176456E+03  0.10195222443E+04  0.33635339656E+03 0.  0.
         13    1    3    3    0    0  0.14042681293E+03  0.84285058829E+02 -0.41495236130E+03  0.44610438585E+03  0.00000000000E+00 0.  1.
          1    1    3    3  501    0 -0.14978764477E+03 -0.81742288155E+02 -0.54743940326E+03  0.57341785850E+03  0.00000000000E+00 0.  1.
         21    1    1    2  502  501  0.93608318470E+01 -0.25427706739E+01 -0.64417873784E+01  0.11644203717E+02  0.00000000000E+00 0.  1.
<mgrwt>
<rscale>  1 0.30000000E+03</rscale>
<asrwt>0</asrwt>
<pdfrwt beam="1">  1        3 0.11333278E+00 0.30000000E+03</pdfrwt>
<pdfrwt beam="2">0</pdfrwt>
<totfact> 0.27608497E+00</totfact>
</mgrwt>
</event>
<event>
 6    1  0.1940992E-004  0.3000000E+03  0.7818608E-02  0.1093470E+00
          1   -1    0    0  502    0  0.00000000000E+00  0.00000000000E+00  0.28397276448E+02  0.28397276448E+02  0.00000000000E+00 0.  1.
         13   -1    0    0    0    0 -0.00000000000E+00 -0.00000000000E+00 -0.10000000000E+04  0.10000000000E+04  0.00000000000E+00 0.  1.
    9000005    2    1    2  501    0 -0.16587158932E+02 -0.49530905658E+01 -0.96914679970E+03  0.10109130404E+04  0.28705398267E+03 0.  0.
         13    1    3    3    0    0  0.41498108735E+02 -0.12486771046E+03 -0.28496124673E+03  0.31387409941E+03  0.00000000000E+00 0.  1.
          1    1    3    3  501    0 -0.58085267668E+02  0.11991461989E+03 -0.68418555298E+03  0.69703894101E+03  0.00000000000E+00 0.  1.
         21    1    1    2  502  501  0.16587158932E+02  0.49530905658E+01 -0.24559238503E+01  0.17484236030E+02  0.00000000000E+00 0. -1.
<mgrwt>
<rscale>  1 0.30000000E+03</rscale>
<asrwt>0</asrwt>
<pdfrwt beam="1">  1        1 0.10326304E+00 0.30000000E+03</pdfrwt>
<pdfrwt beam="2">0</pdfrwt>
<totfact> 0.32649482E+01</totfact>
</mgrwt>
</event>
<event>
 6    1  0.1940992E-004  0.3000000E+03  0.7818608E-02  0.1093470E+00
          1   -1    0    0  502    0  0.00000000000E+00  0.00000000000E+00  0.27966778010E+02  0.27966778010E+02  0.00000000000E+00 0.  1.
         13   -1    0    0    0    0 -0.00000000000E+00 -0.00000000000E+00 -0.10000000000E+04  0.10000000000E+04  0.00000000000E+00 0.  1.
    9000005    2    1    2  501    0 -0.29254896585E+01 -0.86855738526E+01 -0.95570111610E+03  0.10092388479E+04  0.32421355792E+03 0.  0.
         13    1    3    3    0    0  0.12820142811E+03  0.49580290516E+02 -0.21803101835E+03  0.25774277165E+03  0.00000000000E+00 0.  1.
          3    1    3    3  501    0 -0.13112691777E+03 -0.58265864369E+02 -0.73767009776E+03  0.75149607626E+03  0.00000000000E+00 0.  1.
         21    1    1    2  502  501  0.29254896585E+01  0.86855738526E+01 -0.16332105889E+02  0.18727930095E+02  0.00000000000E+00 0. -1.
<mgrwt>
<rscale>  1 0.30000000E+03</rscale>
<asrwt>0</asrwt>
<pdfrwt beam="1">  1        1 0.10169759E+00 0.30000000E+03</pdfrwt>
<pdfrwt beam="2">0</pdfrwt>
<totfact> 0.33392675E+01</totfact>
</mgrwt>
</event>
<event>
 6    1  0.1940992E-004  0.3000000E+03  0.7818608E-02  0.1093470E+00
          1   -1    0    0  502    0  0.00000000000E+00  0.00000000000E+00  0.27059410928E+02  0.27059410928E+02  0.00000000000E+00 0.  1.
         13   -1    0    0    0    0 -0.00000000000E+00 -0.00000000000E+00 -0.10000000000E+04  0.10000000000E+04  0.00000000000E+00 0.  1.
    9000005    2    1    2  501    0  0.13275254293E+02  0.10598415704E+02 -0.95913425603E+03  0.10051693761E+04  0.30023056939E+03 0.  0.
         13    1    3    3    0    0 -0.24137003609E+01  0.73377409367E+02 -0.39705220617E+02  0.83466009244E+02  0.00000000000E+00 0.  1.
          1    1    3    3  501    0  0.15688954654E+02 -0.62778993662E+02 -0.91942903541E+03  0.92170336687E+03  0.00000000000E+00 0.  1.
         21    1    1    2  502  501 -0.13275254293E+02 -0.10598415704E+02 -0.13806333040E+02  0.21890034810E+02  0.00000000000E+00 0. -1.
<mgrwt>
<rscale>  1 0.30000000E+03</rscale>
<asrwt>0</asrwt>
<pdfrwt beam="1">  1        1 0.98398065E-01 0.30000000E+03</pdfrwt>
<pdfrwt beam="2">0</pdfrwt>
<totfact> 0.35042669E+01</totfact>
</mgrwt>
</event>
<event>
 6    1  0.1940992E-004  0.3000000E+03  0.7818608E-02  0.1093470E+00
          1   -1    0    0  502    0  0.00000000000E+00  0.00000000000E+00  0.48513728793E+02  0.48513728793E+02  0.00000000000E+00 0.  1.
         13   -1    0    0    0    0 -0.00000000000E+00 -0.00000000000E+00 -0.10000000000E+04  0.10000000000E+04  0.00000000000E+00 0.  1.
    9000005    2    1    2  501    0  0.34749049809E+01  0.38807352818E+02 -0.95282699785E+03  0.10095280501E+04  0.33128463661E+03 0.  0.
         13    1    3    3    0    0 -0.45020121896E+02 -0.13537093791E+03 -0.30110210849E+03  0.33318850812E+03  0.00000000000E+00 0.  1.
          1    1    3    3  501    0  0.48495026877E+02  0.17417829073E+03 -0.65172488936E+03  0.67633954195E+03  0.00000000000E+00 0.  1.
         21    1    1    2  502  501 -0.34749049809E+01 -0.38807352818E+02  0.13407266434E+01  0.38985678721E+02  0.00000000000E+00 0. -1.
<mgrwt>
<rscale>  1 0.30000000E+03</rscale>
<asrwt>0</asrwt>
<pdfrwt beam="1">  1        1 0.17641393E+00 0.30000000E+03</pdfrwt>
<pdfrwt beam="2">0</pdfrwt>
<totfact> 0.13295930E+01</totfact>
</mgrwt>
</event>
<event>
 6    1  0.1940992E-004  0.3000000E+03  0.7818608E-02  0.1093470E+00
          1   -1    0    0  502    0  0.00000000000E+00  0.00000000000E+00  0.33480415094E+02  0.33480415094E+02  0.00000000000E+00 0.  1.
         13   -1    0    0    0    0 -0.00000000000E+00 -0.00000000000E+00 -0.10000000000E+04  0.10000000000E+04  0.00000000000E+00 0.  1.
    9000005    2    1    2  501    0  0.19721673984E+02  0.25836427179E+02 -0.93913791890E+03  0.99098075595E+03  0.31465276505E+03 0.  0.
         13    1    3    3    0    0 -0.11073667799E+03 -0.22746661987E+01 -0.12944474062E+03  0.17036351379E+03  0.00000000000E+00 0.  1.
          3    1    3    3  501    0  0.13045835197E+03  0.28111093378E+02 -0.80969317828E+03  0.82061724216E+03  0.00000000000E+00 0.  1.
         21    1    1    2  502  501 -0.19721673984E+02 -0.25836427179E+02 -0.27381666007E+02  0.42499659145E+02  0.00000000000E+00 0.  1.
<mgrwt>
<rscale>  1 0.30000000E+03</rscale>
<asrwt>0</asrwt>
<pdfrwt beam="1">  1        1 0.12174722E+00 0.30000000E+03</pdfrwt>
<pdfrwt beam="2">0</pdfrwt>
<totfact> 0.25413531E+01</totfact>
</mgrwt>
</event>
<event>
 6    1  0.1940992E-004  0.3000000E+03  0.7818608E-02  0.1093470E+00
          1   -1    0    0  502    0  0.00000000000E+00  0.00000000000E+00  0.43710837317E+02  0.43710837317E+02  0.00000000000E+00 0.  1.
         13   -1    0    0    0    0 -0.00000000000E+00 -0.00000000000E+00 -0.10000000000E+04  0.10000000000E+04  0.00000000000E+00 0.  1.
    9000005    2    1    2  501    0  0.32178483740E+01 -0.16005424648E+02 -0.97122888893E+03  0.10215811381E+04  0.31634781316E+03 0.  0.
         13    1    3    3    0    0 -0.58335830899E+02  0.13563201867E+03 -0.36710956149E+03  0.39568743194E+03  0.00000000000E+00 0.  1.
          1    1    3    3  501    0  0.61553679273E+02 -0.15163744331E+03 -0.60411932744E+03  0.62589370618E+03  0.00000000000E+00 0.  1.
         21    1    1    2  502  501 -0.32178483740E+01  0.16005424648E+02  0.14939726250E+02  0.22129699201E+02  0.00000000000E+00 0.  1.
<mgrwt>
<rscale>  1 0.30000000E+03</rscale>
<asrwt>0</asrwt>
<pdfrwt beam="1">  1        1 0.15894883E+00 0.30000000E+03</pdfrwt>
<pdfrwt beam="2">0</pdfrwt>
<totfact> 0.16196824E+01</totfact>
</mgrwt>
</event>
<event>
 6    1  0.1940992E-004  0.3000000E+03  0.7818608E-02  0.1093470E+00
          1   -1    0    0  502    0  0.00000000000E+00  0.00000000000E+00  0.40966159099E+02  0.40966159099E+02  0.00000000000E+00 0.  1.
         13   -1    0    0    0    0 -0.00000000000E+00 -0.00000000000E+00 -0.10000000000E+04  0.10000000000E+04  0.00000000000E+00 0.  1.
    9000005    2    1    2  501    0 -0.40204272552E+02 -0.14037675430E+02 -0.94372904865E+03  0.99571489913E+03  0.31465886802E+03 0.  0.
         13    1    3    3    0    0  0.10114001355E+02 -0.38883751774E+02  0.91323419945E+01  0.41202413105E+02  0.00000000000E+00 0.  1.
          1    1    3    3  501    0 -0.50318273907E+02  0.24846076344E+02 -0.95286139064E+03  0.95451248602E+03  0.00000000000E+00 0.  1.
         21    1    1    2  502  501  0.40204272552E+02  0.14037675430E+02 -0.15304792253E+02  0.45251259969E+02  0.00000000000E+00 0.  1.
<mgrwt>
<rscale>  1 0.30000000E+03</rscale>
<asrwt>0</asrwt>
<pdfrwt beam="1">  1        1 0.14896817E+00 0.30000000E+03</pdfrwt>
<pdfrwt beam="2">0</pdfrwt>
<totfact> 0.18183624E+01</totfact>
</mgrwt>
</event>
<event>
 6    1  0.1940992E-004  0.3000000E+03  0.7818608E-02  0.1093470E+00
          1   -1    0    0  502    0  0.00000000000E+00  0.00000000000E+00  0.32097598841E+02  0.32097598841E+02  0.00000000000E+00 0.  1.
         13   -1    0    0    0    0 -0.00000000000E+00 -0.00000000000E+00 -0.10000000000E+04  0.10000000000E+04  0.00000000000E+00 0.  1.
    9000005    2    1    2  501    0  0.79974360217E+01 -0.88607370494E+01 -0.96910153666E+03  0.10201013674E+04  0.31828688267E+03 0.  0.
         13    1    3    3    0    0 -0.82149539313E+02  0.12949767922E+03 -0.47224440728E+03  0.49652087161E+03  0.00000000000E+00 0.  1.
          3    1    3    3  501    0  0.90146975335E+02 -0.13835841627E+03 -0.49685712937E+03  0.52358049574E+03  0.00000000000E+00 0.  1.
         21    1    1    2  502  501 -0.79974360217E+01  0.88607370494E+01  0.11991354989E+01  0.11996231488E+02  0.00000000000E+00 0. -1.
<mgrwt>
<rscale>  1 0.30000000E+03</rscale>
<asrwt>0</asrwt>
<pdfrwt beam="1">  1        1 0.11671879E+00 0.30000000E+03</pdfrwt>
<pdfrwt beam="2">0</pdfrwt>
<totfact> 0.27139454E+01</totfact>
</mgrwt>
</event>
<event>
 6    1  0.1940992E-004  0.3000000E+03  0.7818608E-02  0.1093470E+00
          1   -1    0    0  502    0  0.00000000000E+00  0.00000000000E+00  0.41578395754E+02  0.41578395754E+02  0.00000000000E+00 0.  1.
         13   -1    0    0    0    0 -0.00000000000E+00 -0.00000000000E+00 -0.10000000000E+04  0.10000000000E+04  0.00000000000E+00 0.  1.
    9000005    2    1    2  501    0 -0.30517302391E+02 -0.78261501564E+01 -0.95861526895E+03  0.10100729696E+04  0.31672009040E+03 0.  0.
         13    1    3    3    0    0 -0.10305554500E+03 -0.10685920554E+03 -0.77573565928E+03  0.78981336292E+03  0.00000000000E+00 0.  1.
          3    1    3    3  501    0  0.72538242605E+02  0.99033055388E+02 -0.18287960967E+03  0.22025960668E+03  0.00000000000E+00 0.  1.
         21    1    1    2  502  501  0.30517302391E+02  0.78261501564E+01  0.19366470638E+00  0.31505426160E+02  0.00000000000E+00 0.  1.
<mgrwt>
<rscale>  1 0.30000000E+03</rscale>
<asrwt>0</asrwt>
<pdfrwt beam="1">  1        1 0.15119449E+00 0.30000000E+03</pdfrwt>
<pdfrwt beam="2">0</pdfrwt>
<totfact> 0.17715864E+01</totfact>
</mgrwt>
</event>
<event>
 6    1  0.1940992E-004  0.3000000E+03  0.7818608E-02  0.1093470E+00
          1   -1    0    0  502    0  0.00000000000E+00  0.00000000000E+00  0.38447515082E+02  0.38447515082E+02  0.00000000000E+00 0.  1.
         13   -1    0    0    0    0 -0.00000000000E+00 -0.00000000000E+00 -0.10000000000E+04  0.10000000000E+04  0.00000000000E+00 0.  1.
    9000005    2    1    2  501    0 -0.12648144826E+02 -0.20164750583E+02 -0.94989067750E+03  0.10119410916E+04  0.34808889803E+03 0.  0.
         13    1    3    3    0    0  0.10082526785E+03  0.27583776298E+01 -0.85861813198E+03  0.86452208755E+03  0.00000000000E+00 0.  1.
          1    1    3    3  501    0 -0.11347341267E+03 -0.22923128213E+02 -0.91272545512E+02  0.14741900405E+03  0.00000000000E+00 0.  1.
         21    1    1    2  502  501  0.12648144826E+02  0.20164750583E+02 -0.11661807422E+02  0.26506423485E+02  0.00000000000E+00 0. -1.
<mgrwt>
<rscale>  1 0.30000000E+03</rscale>
<asrwt>0</asrwt>
<pdfrwt beam="1">  1        1 0.13980944E+00 0.30000000E+03</pdfrwt>
<pdfrwt beam="2">0</pdfrwt>
<totfact> 0.20278851E+01</totfact>
</mgrwt>
</event>
<event>
 6    1  0.1940992E-004  0.3000000E+03  0.7818608E-02  0.1093470E+00
          1   -1    0    0  502    0  0.00000000000E+00  0.00000000000E+00  0.35442880793E+02  0.35442880793E+02  0.00000000000E+00 0.  1.
         13   -1    0    0    0    0 -0.00000000000E+00 -0.00000000000E+00 -0.10000000000E+04  0.10000000000E+04  0.00000000000E+00 0.  1.
    9000005    2    1    2  501    0  0.11137709206E+02 -0.62496436561E+01 -0.96849022443E+03  0.10220796503E+04  0.32635929612E+03 0.  0.
         13    1    3    3    0    0 -0.77143689620E+01 -0.83058165712E+02 -0.44181899886E+02  0.94393912184E+02  0.00000000000E+00 0.  1.
          1    1    3    3  501    0  0.18852078168E+02  0.76808522056E+02 -0.92430832454E+03  0.92768573813E+03  0.00000000000E+00 0.  1.
         21    1    1    2  502  501 -0.11137709206E+02  0.62496436561E+01  0.39331052208E+01  0.13363230480E+02  0.00000000000E+00 0.  1.
<mgrwt>
<rscale>  1 0.30000000E+03</rscale>
<asrwt>0</asrwt>
<pdfrwt beam="1">  1        1 0.12888347E+00 0.30000000E+03</pdfrwt>
<pdfrwt beam="2">0</pdfrwt>
<totfact> 0.23202984E+01</totfact>
</mgrwt>
</event>
<event>
 6    1  0.1940992E-004  0.3000000E+03  0.7818608E-02  0.1093470E+00
          1   -1    0    0  502    0  0.00000000000E+00  0.00000000000E+00  0.29999083693E+02  0.29999083693E+02  0.00000000000E+00 0.  1.
         13   -1    0    0    0    0 -0.00000000000E+00 -0.00000000000E+00 -0.10000000000E+04  0.10000000000E+04  0.00000000000E+00 0.  1.
    9000005    2    1    2  501    0 -0.56845913517E+01 -0.16374226136E+02 -0.95401504776E+03  0.10064199011E+04  0.32005605140E+03 0.  0.
         13    1    3    3    0    0  0.11997082615E+03  0.69501481896E+02 -0.67000172683E+03  0.68419717120E+03  0.00000000000E+00 0.  1.
          3    1    3    3  501    0 -0.12565541750E+03 -0.85875708032E+02 -0.28401332092E+03  0.32222272986E+03  0.00000000000E+00 0.  1.
         21    1    1    2  502  501  0.56845913517E+01  0.16374226136E+02 -0.15985868550E+02  0.23579182634E+02  0.00000000000E+00 0.  1.
<mgrwt>
<rscale>  1 0.30000000E+03</rscale>
<asrwt>0</asrwt>
<pdfrwt beam="1">  1        1 0.10908781E+00 0.30000000E+03</pdfrwt>
<pdfrwt beam="2">0</pdfrwt>
<totfact> 0.30084917E+01</totfact>
</mgrwt>
</event>
<event>
 6    1  0.1940992E-004  0.3000000E+03  0.7818608E-02  0.1093470E+00
          1   -1    0    0  502    0  0.00000000000E+00  0.00000000000E+00  0.53968677816E+02  0.53968677816E+02  0.00000000000E+00 0.  1.
         13   -1    0    0    0    0 -0.00000000000E+00 -0.00000000000E+00 -0.10000000000E+04  0.10000000000E+04  0.00000000000E+00 0.  1.
    9000005    2    1    2  501    0  0.32868398714E+02 -0.13133361694E+02 -0.96061914100E+03  0.10156852443E+04  0.32798561647E+03 0.  0.
         13    1    3    3    0    0  0.55120460634E+02  0.96414113118E+02 -0.85405393706E+03  0.86124449130E+03  0.00000000000E+00 0.  1.
          1    1    3    3  501    0 -0.22252061920E+02 -0.10954747481E+03 -0.10656520395E+03  0.15444075301E+03  0.00000000000E+00 0.  1.
         21    1    1    2  502  501 -0.32868398714E+02  0.13133361694E+02  0.14587818820E+02  0.38283433511E+02  0.00000000000E+00 0.  1.
<mgrwt>
<rscale>  1 0.30000000E+03</rscale>
<asrwt>0</asrwt>
<pdfrwt beam="1">  1        1 0.19625015E+00 0.30000000E+03</pdfrwt>
<pdfrwt beam="2">0</pdfrwt>
<totfact> 0.10673096E+01</totfact>
</mgrwt>
</event>
<event>
 6    1  0.1940992E-004  0.3000000E+03  0.7818608E-02  0.1093470E+00
          1   -1    0    0  502    0  0.00000000000E+00  0.00000000000E+00  0.37636568977E+02  0.37636568977E+02  0.00000000000E+00 0.  1.
         13   -1    0    0    0    0 -0.00000000000E+00 -0.00000000000E+00 -0.10000000000E+04  0.10000000000E+04  0.00000000000E+00 0.  1.
    9000005    2    1    2  501    0 -0.63440775093E+01  0.62317820175E+02 -0.80371659905E+03  0.86707111138E+03  0.31926193410E+03 0.  0.
         13    1    3    3    0    0 -0.21809549780E+02 -0.10932719720E+03 -0.12808406517E+03  0.16980465323E+03  0.00000000000E+00 0.  1.
          1    1    3    3  501    0  0.15465472271E+02  0.17164501737E+03 -0.67563253388E+03  0.69726645814E+03  0.00000000000E+00 0.  1.
         21    1    1    2  502  501  0.63440775093E+01 -0.62317820175E+02 -0.15864683198E+03  0.17056545760E+03  0.00000000000E+00 0.  1.
<mgrwt>
<rscale>  1 0.30000000E+03</rscale>
<asrwt>0</asrwt>
<pdfrwt beam="1">  1        1 0.13686054E+00 0.30000000E+03</pdfrwt>
<pdfrwt beam="2">0</pdfrwt>
<totfact> 0.21018086E+01</totfact>
</mgrwt>
</event>
<event>
 6    1  0.1940992E-004  0.3000000E+03  0.7818608E-02  0.1093470E+00
          1   -1    0    0  502    0  0.00000000000E+00  0.00000000000E+00  0.75353604552E+02  0.75353604552E+02  0.00000000000E+00 0.  1.
         13   -1    0    0    0    0 -0.00000000000E+00 -0.00000000000E+00 -0.10000000000E+04  0.10000000000E+04  0.00000000000E+00 0.  1.
    9000005    2    1    2  501    0  0.20199875135E+00 -0.17132776817E+02 -0.97200996297E+03  0.10249861510E+04  0.32480712562E+03 0.  0.
         13    1    3    3    0    0 -0.10256877502E+03 -0.12428915528E+03 -0.34714624365E+03  0.38272530908E+03  0.00000000000E+00 0.  1.
          1    1    3    3  501    0  0.10277077377E+03  0.10715637846E+03 -0.62486371932E+03  0.64226084196E+03  0.00000000000E+00 0.  1.
         21    1    1    2  502  501 -0.20199875135E+00  0.17132776817E+02  0.47363567524E+02  0.50367453515E+02  0.00000000000E+00 0.  1.
<mgrwt>
<rscale>  1 0.30000000E+03</rscale>
<asrwt>0</asrwt>
<pdfrwt beam="1">  1        1 0.27401369E+00 0.30000000E+03</pdfrwt>
<pdfrwt beam="2">0</pdfrwt>
<totfact> 0.46048453E+00</totfact>
</mgrwt>
</event>
<event>
 6    1  0.1940992E-004  0.3000000E+03  0.7818608E-02  0.1093470E+00
          1   -1    0    0  502    0  0.00000000000E+00  0.00000000000E+00  0.36129725426E+02  0.36129725426E+02  0.00000000000E+00 0.  1.
         13   -1    0    0    0    0 -0.00000000000E+00 -0.00000000000E+00 -0.10000000000E+04  0.10000000000E+04  0.00000000000E+00 0.  1.
    9000005    2    1    2  501    0 -0.13669071395E+02 -0.16363174849E+02 -0.96081503486E+03  0.10145906564E+04  0.32522926050E+03 0.  0.
         13    1    3    3    0    0  0.94899004231E+02  0.74132470066E+02 -0.75727672197E+03  0.76679167820E+03  0.00000000000E+00 0.  1.
          1    1    3    3  501    0 -0.10856807563E+03 -0.90495644915E+02 -0.20353831289E+03  0.24779897822E+03  0.00000000000E+00 0.  1.
         21    1    1    2  502  501  0.13669071395E+02  0.16363174849E+02 -0.30552397183E+01  0.21539069006E+02  0.00000000000E+00 0.  1.
<mgrwt>
<rscale>  1 0.30000000E+03</rscale>
<asrwt>0</asrwt>
<pdfrwt beam="1">  1        1 0.13138110E+00 0.30000000E+03</pdfrwt>
<pdfrwt beam="2">0</pdfrwt>
<totfact> 0.22488040E+01</totfact>
</mgrwt>
</event>
<event>
 6    1  0.1940992E-004  0.3000000E+03  0.7818608E-02  0.1093470E+00
          1   -1    0    0  502    0  0.00000000000E+00  0.00000000000E+00  0.28878972795E+02  0.28878972795E+02  0.00000000000E+00 0.  1.
         13   -1    0    0    0    0 -0.00000000000E+00 -0.00000000000E+00 -0.10000000000E+04  0.10000000000E+04  0.00000000000E+00 0.  1.
    9000005    2    1    2  501    0  0.96035260452E+01 -0.19798577088E+01 -0.95659355377E+03  0.10113519926E+04  0.32812418129E+03 0.  0.
         13    1    3    3    0    0  0.16368134254E+03  0.31812980454E+02 -0.41471189938E+03  0.44697830720E+03  0.00000000000E+00 0.  1.
          3    1    3    3  501    0 -0.15407781649E+03 -0.33792838163E+02 -0.54188165440E+03  0.56437368544E+03  0.00000000000E+00 0.  1.
         21    1    1    2  502  501 -0.96035260452E+01  0.19798577088E+01 -0.14527473431E+02  0.17526980154E+02  0.00000000000E+00 0.  1.
<mgrwt>
<rscale>  1 0.30000000E+03</rscale>
<asrwt>0</asrwt>
<pdfrwt beam="1">  1        1 0.10501467E+00 0.30000000E+03</pdfrwt>
<pdfrwt beam="2">0</pdfrwt>
<totfact> 0.31846119E+01</totfact>
</mgrwt>
</event>
<event>
 6    1  0.1940992E-004  0.3000000E+03  0.7818608E-02  0.1093470E+00
          1   -1    0    0  502    0  0.00000000000E+00  0.00000000000E+00  0.36565145155E+02  0.36565145155E+02  0.00000000000E+00 0.  1.
         13   -1    0    0    0    0 -0.00000000000E+00 -0.00000000000E+00 -0.10000000000E+04  0.10000000000E+04  0.00000000000E+00 0.  1.
    9000005    2    1    2  501    0  0.45744497103E+01 -0.11857338670E+02 -0.96778743822E+03  0.10231313425E+04  0.33169820087E+03 0.  0.
         13    1    3    3    0    0  0.69663593325E+02 -0.11726921802E+03 -0.18095245644E+03  0.22660290647E+03  0.00000000000E+00 0.  1.
          3    1    3    3  501    0 -0.65089143615E+02  0.10541187935E+03 -0.78683498178E+03  0.79652843608E+03  0.00000000000E+00 0.  1.
         21    1    1    2  502  501 -0.45744497103E+01  0.11857338670E+02  0.43525833723E+01  0.13433802608E+02  0.00000000000E+00 0.  1.
<mgrwt>
<rscale>  1 0.30000000E+03</rscale>
<asrwt>0</asrwt>
<pdfrwt beam="1">  1        1 0.13296444E+00 0.30000000E+03</pdfrwt>
<pdfrwt beam="2">0</pdfrwt>
<totfact> 0.22049667E+01</totfact>
</mgrwt>
</event>
<event>
 6    1  0.1940992E-004  0.3000000E+03  0.7818608E-02  0.1093470E+00
          1   -1    0    0  502    0  0.00000000000E+00  0.00000000000E+00  0.31300035877E+02  0.31300035877E+02  0.00000000000E+00 0.  1.
         13   -1    0    0    0    0 -0.00000000000E+00 -0.00000000000E+00 -0.10000000000E+04  0.10000000000E+04  0.00000000000E+00 0.  1.
    9000005    2    1    2  501    0 -0.44303369677E+01  0.17985582863E+02 -0.95002972653E+03  0.10050000958E+04  0.32730047690E+03 0.  0.
         13    1    3    3    0    0  0.13675673683E+03 -0.16682446856E+01 -0.20486102215E+03  0.24631935877E+03  0.00000000000E+00 0.  1.
          3    1    3    3  501    0 -0.14118707380E+03  0.19653827548E+02 -0.74516870439E+03  0.75868073703E+03  0.00000000000E+00 0.  1.
         21    1    1    2  502  501  0.44303369677E+01 -0.17985582863E+02 -0.18670237593E+02  0.26299940082E+02  0.00000000000E+00 0.  1.
<mgrwt>
<rscale>  1 0.30000000E+03</rscale>
<asrwt>0</asrwt>
<pdfrwt beam="1">  1        1 0.11381855E+00 0.30000000E+03</pdfrwt>
<pdfrwt beam="2">0</pdfrwt>
<totfact> 0.28208700E+01</totfact>
</mgrwt>
</event>
<event>
 6    1  0.1940992E-004  0.3000000E+03  0.7818608E-02  0.1093470E+00
          1   -1    0    0  502    0  0.00000000000E+00  0.00000000000E+00  0.31747126107E+02  0.31747126107E+02  0.00000000000E+00 0.  1.
         13   -1    0    0    0    0 -0.00000000000E+00 -0.00000000000E+00 -0.10000000000E+04  0.10000000000E+04  0.00000000000E+00 0.  1.
    9000005    2    1    2  501    0 -0.87593613262E+01 -0.73479351413E+01 -0.96552606820E+03  0.10199932318E+04  0.32865618207E+03 0.  0.
         13    1    3    3    0    0  0.10275164221E+03  0.10678152966E+03 -0.64678042642E+03  0.66353983683E+03  0.00000000000E+00 0.  1.
          3    1    3    3  501    0 -0.11151100353E+03 -0.11412946481E+03 -0.31874564178E+03  0.35645339499E+03  0.00000000000E+00 0.  1.
         21    1    1    2  502  501  0.87593613262E+01  0.73479351413E+01 -0.27268056888E+01  0.11753894289E+02  0.00000000000E+00 0. -1.
<mgrwt>
<rscale>  1 0.30000000E+03</rscale>
<asrwt>0</asrwt>
<pdfrwt beam="1">  1        1 0.11544434E+00 0.30000000E+03</pdfrwt>
<pdfrwt beam="2">0</pdfrwt>
<totfact> 0.27602205E+01</totfact>
</mgrwt>
</event>
<event>
 6    1  0.1940992E-004  0.3000000E+03  0.7818608E-02  0.1093470E+00
          1   -1    0    0  502    0  0.00000000000E+00  0.00000000000E+00  0.39097807283E+02  0.39097807283E+02  0.00000000000E+00 0.  1.
         13   -1    0    0    0    0 -0.00000000000E+00 -0.00000000000E+00 -0.10000000000E+04  0.10000000000E+04  0.00000000000E+00 0.  1.
    9000005    2    1    2  501    0  0.34090444346E+02 -0.41211874847E+02 -0.89954014774E+03  0.95769831350E+03  0.32427304122E+03 0.  0.
         13    1    3    3    0    0 -0.13061308893E+03 -0.29136084431E+02 -0.60874589661E+03  0.62328184399E+03  0.00000000000E+00 0.  1.
          1    1    3    3  501    0  0.16470353327E+03 -0.12075790416E+02 -0.29079425113E+03  0.33441646951E+03  0.00000000000E+00 0.  1.
         21    1    1    2  502  501 -0.34090444346E+02  0.41211874847E+02 -0.61362044975E+02  0.81399493779E+02  0.00000000000E+00 0. -1.
<mgrwt>
<rscale>  1 0.30000000E+03</rscale>
<asrwt>0</asrwt>
<pdfrwt beam="1">  1        1 0.14217414E+00 0.30000000E+03</pdfrwt>
<pdfrwt beam="2">0</pdfrwt>
<totfact> 0.19709872E+01</totfact>
</mgrwt>
</event>
<event>
 6    1  0.1940992E-004  0.3000000E+03  0.7818608E-02  0.1093470E+00
          1   -1    0    0  502    0  0.00000000000E+00  0.00000000000E+00  0.33430439490E+02  0.33430439490E+02  0.00000000000E+00 0.  1.
         13   -1    0    0    0    0 -0.00000000000E+00 -0.00000000000E+00 -0.10000000000E+04  0.10000000000E+04  0.00000000000E+00 0.  1.
    9000005    2    1    2  501    0 -0.10711809336E+02 -0.27470997128E+01 -0.97051639197E+03  0.10216887661E+04  0.31909806990E+03 0.  0.
         13    1    3    3    0    0 -0.15671317340E+03  0.48031665942E+02 -0.46324861595E+03  0.49139122889E+03  0.00000000000E+00 0.  1.
          1    1    3    3  501    0  0.14600136406E+03 -0.50778765655E+02 -0.50726777602E+03  0.53029753718E+03  0.00000000000E+00 0.  1.
         21    1    1    2  502  501  0.10711809336E+02  0.27470997128E+01  0.39468314626E+01  0.11741673419E+02  0.00000000000E+00 0. -1.
<mgrwt>
<rscale>  1 0.30000000E+03</rscale>
<asrwt>0</asrwt>
<pdfrwt beam="1">  1        1 0.12156549E+00 0.30000000E+03</pdfrwt>
<pdfrwt beam="2">0</pdfrwt>
<totfact> 0.25473304E+01</totfact>
</mgrwt>
</event>
<event>
 6    1  0.1940992E-004  0.3000000E+03  0.7818608E-02  0.1093470E+00
          1   -1    0    0  502    0  0.00000000000E+00  0.00000000000E+00  0.37316843976E+02  0.37316843976E+02  0.00000000000E+00 0.  1.
         13   -1    0    0    0    0 -0.00000000000E+00 -0.00000000000E+00 -0.10000000000E+04  0.10000000000E+04  0.00000000000E+00 0.  1.
    9000005    2    1    2  501    0  0.14880419776E+02  0.58267154650E+01 -0.96736095876E+03  0.10206657376E+04  0.32513988657E+03 0.  0.
         13    1    3    3    0    0 -0.10276505521E+03  0.12244780318E+03 -0.46903672626E+03  0.49552958706E+03  0.00000000000E+00 0.  1.
          1    1    3    3  501    0  0.11764547499E+03 -0.11662108772E+03 -0.49832423250E+03  0.52513615052E+03  0.00000000000E+00 0.  1.
         21    1    1    2  502  501 -0.14880419776E+02 -0.58267154650E+01  0.46778027319E+01  0.16651106396E+02  0.00000000000E+00 0.  1.
<mgrwt>
<rscale>  1 0.30000000E+03</rscale>
<asrwt>0</asrwt>
<pdfrwt beam="1">  1        1 0.13569790E+00 0.30000000E+03</pdfrwt>
<pdfrwt beam="2">0</pdfrwt>
<totfact> 0.21319072E+01</totfact>
</mgrwt>
</event>
<event>
 6    1  0.1940992E-004  0.3000000E+03  0.7818608E-02  0.1093470E+00
          1   -1    0    0  502    0  0.00000000000E+00  0.00000000000E+00  0.86633998697E+02  0.86633998697E+02  0.00000000000E+00 0.  1.
         13   -1    0    0    0    0 -0.00000000000E+00 -0.00000000000E+00 -0.10000000000E+04  0.10000000000E+04  0.00000000000E+00 0.  1.
    9000005    2    1    2  501    0 -0.26999588940E+02 -0.59316527055E+02 -0.95301170710E+03  0.10103502509E+04  0.32913354051E+03 0.  0.
         13    1    3    3    0    0 -0.11402285257E+03 -0.16284294987E+03 -0.61300180309E+03  0.64443017296E+03  0.00000000000E+00 0.  1.
          1    1    3    3  501    0  0.87023263628E+02  0.10352642282E+03 -0.34000990402E+03  0.36592007797E+03  0.00000000000E+00 0.  1.
         21    1    1    2  502  501  0.26999588940E+02  0.59316527055E+02  0.39645705802E+02  0.76283747767E+02  0.00000000000E+00 0.  1.
<mgrwt>
<rscale>  1 0.30000000E+03</rscale>
<asrwt>0</asrwt>
<pdfrwt beam="1">  1        1 0.31503339E+00 0.30000000E+03</pdfrwt>
<pdfrwt beam="2">0</pdfrwt>
<totfact> 0.29436421E+00</totfact>
</mgrwt>
</event>
<event>
 6    1  0.1940992E-004  0.3000000E+03  0.7818608E-02  0.1093470E+00
          1   -1    0    0  502    0  0.00000000000E+00  0.00000000000E+00  0.57190002657E+02  0.57190002657E+02  0.00000000000E+00 0.  1.
         13   -1    0    0    0    0 -0.00000000000E+00 -0.00000000000E+00 -0.10000000000E+04  0.10000000000E+04  0.00000000000E+00 0.  1.
    9000005    2    1    2  501    0 -0.72891276333E+01  0.58644745744E+02 -0.90680508834E+03  0.98798963374E+03  0.38773149288E+03 0.  0.
         13    1    3    3    0    0 -0.31002407855E+02 -0.83559306830E+02 -0.22381043170E+02  0.91892427022E+02  0.00000000000E+00 0.  1.
          1    1    3    3  501    0  0.23713280221E+02  0.14220405257E+03 -0.88442404517E+03  0.89609720672E+03  0.00000000000E+00 0.  1.
         21    1    1    2  502  501  0.72891276333E+01 -0.58644745744E+02 -0.36004909007E+02  0.69200368913E+02  0.00000000000E+00 0.  1.
<mgrwt>
<rscale>  1 0.30000000E+03</rscale>
<asrwt>0</asrwt>
<pdfrwt beam="1">  1        1 0.20796408E+00 0.30000000E+03</pdfrwt>
<pdfrwt beam="2">0</pdfrwt>
<totfact> 0.93906958E+00</totfact>
</mgrwt>
</event>
<event>
 6    1  0.1940992E-004  0.3000000E+03  0.7818608E-02  0.1093470E+00
          1   -1    0    0  502    0  0.00000000000E+00  0.00000000000E+00  0.18822172226E+02  0.18822172226E+02  0.00000000000E+00 0.  1.
         13   -1    0    0    0    0 -0.00000000000E+00 -0.00000000000E+00 -0.10000000000E+04  0.10000000000E+04  0.00000000000E+00 0.  1.
    9000005    2    1    2  501    0  0.19555292816E+02 -0.98883970449E+01 -0.96711392392E+03  0.99278406045E+03  0.22322781855E+03 0.  0.
         13    1    3    3    0    0 -0.55673516399E+02  0.78236150921E+02 -0.60532822238E+03  0.61289696732E+03  0.00000000000E+00 0.  1.
          3    1    3    3  501    0  0.75228809215E+02 -0.88124547966E+02 -0.36178570154E+03  0.37988709313E+03  0.00000000000E+00 0.  1.
         21    1    1    2  502  501 -0.19555292816E+02  0.98883970449E+01 -0.14063903858E+02  0.26038111778E+02  0.00000000000E+00 0.  1.
<mgrwt>
<rscale>  1 0.30000000E+03</rscale>
<asrwt>0</asrwt>
<pdfrwt beam="1">  1        1 0.68444407E-01 0.30000000E+03</pdfrwt>
<pdfrwt beam="2">0</pdfrwt>
<totfact> 0.58127870E+01</totfact>
</mgrwt>
</event>
<event>
 6    1  0.1940992E-004  0.3000000E+03  0.7818608E-02  0.1093470E+00
          1   -1    0    0  502    0  0.00000000000E+00  0.00000000000E+00  0.33193502546E+02  0.33193502546E+02  0.00000000000E+00 0.  1.
         13   -1    0    0    0    0 -0.00000000000E+00 -0.00000000000E+00 -0.10000000000E+04  0.10000000000E+04  0.00000000000E+00 0.  1.
    9000005    2    1    2  501    0  0.17229233379E+01  0.27477870957E+02 -0.94546437133E+03  0.99835834495E+03  0.31946596943E+03 0.  0.
         13    1    3    3    0    0 -0.70092857556E+02  0.48269974349E+02 -0.91281743434E+03  0.91677623635E+03  0.00000000000E+00 0.  1.
          3    1    3    3  501    0  0.71815780894E+02 -0.20792103392E+02 -0.32646936991E+02  0.81582108601E+02  0.00000000000E+00 0.  1.
         21    1    1    2  502  501 -0.17229233379E+01 -0.27477870957E+02 -0.21342126123E+02  0.34835157595E+02  0.00000000000E+00 0.  1.
<mgrwt>
<rscale>  1 0.30000000E+03</rscale>
<asrwt>0</asrwt>
<pdfrwt beam="1">  1        1 0.12070390E+00 0.30000000E+03</pdfrwt>
<pdfrwt beam="2">0</pdfrwt>
<totfact> 0.25759240E+01</totfact>
</mgrwt>
</event>
<event>
 6    1  0.1940992E-004  0.3000000E+03  0.7818608E-02  0.1093470E+00
          1   -1    0    0  502    0  0.00000000000E+00  0.00000000000E+00  0.59006581177E+02  0.59006581177E+02  0.00000000000E+00 0.  1.
         13   -1    0    0    0    0 -0.00000000000E+00 -0.00000000000E+00 -0.10000000000E+04  0.10000000000E+04  0.00000000000E+00 0.  1.
    9000005    2    1    2  501    0 -0.10180573150E+02 -0.21407006474E+01 -0.97171397877E+03  0.10265723481E+04  0.33092975501E+03 0.  0.
         13    1    3    3    0    0  0.15086746929E+03  0.38707139000E+02 -0.35098093122E+03  0.38398808573E+03  0.00000000000E+00 0.  1.
          1    1    3    3  501    0 -0.16104804244E+03 -0.40847839648E+02 -0.62073304755E+03  0.64258426241E+03  0.00000000000E+00 0.  1.
         21    1    1    2  502  501  0.10180573150E+02  0.21407006474E+01  0.30720559951E+02  0.32434233036E+02  0.00000000000E+00 0.  1.
<mgrwt>
<rscale>  1 0.30000000E+03</rscale>
<asrwt>0</asrwt>
<pdfrwt beam="1">  1        1 0.21456984E+00 0.30000000E+03</pdfrwt>
<pdfrwt beam="2">0</pdfrwt>
<totfact> 0.87415357E+00</totfact>
</mgrwt>
</event>
<event>
 6    1  0.1940992E-004  0.3000000E+03  0.7818608E-02  0.1093470E+00
          1   -1    0    0  502    0  0.00000000000E+00  0.00000000000E+00  0.26090862605E+02  0.26090862605E+02  0.00000000000E+00 0.  1.
         13   -1    0    0    0    0 -0.00000000000E+00 -0.00000000000E+00 -0.10000000000E+04  0.10000000000E+04  0.00000000000E+00 0.  1.
    9000005    2    1    2  501    0  0.91237605851E+00  0.21864200213E+02 -0.95223349881E+03  0.99528974267E+03  0.28874583968E+03 0.  0.
         13    1    3    3    0    0  0.73818492014E+02 -0.10103628432E+03 -0.63708857031E+03  0.64926061557E+03  0.00000000000E+00 0.  1.
          1    1    3    3  501    0 -0.72906115955E+02  0.12290048453E+03 -0.31514492850E+03  0.34602912710E+03  0.00000000000E+00 0.  1.
         21    1    1    2  502  501 -0.91237605851E+00 -0.21864200213E+02 -0.21675638584E+02  0.30801119932E+02  0.00000000000E+00 0.  1.
<mgrwt>
<rscale>  1 0.30000000E+03</rscale>
<asrwt>0</asrwt>
<pdfrwt beam="1">  1        1 0.94876064E-01 0.30000000E+03</pdfrwt>
<pdfrwt beam="2">0</pdfrwt>
<totfact> 0.36940440E+01</totfact>
</mgrwt>
</event>
<event>
 6    1  0.1940992E-004  0.3000000E+03  0.7818608E-02  0.1093470E+00
          1   -1    0    0  502    0  0.00000000000E+00  0.00000000000E+00  0.53990161803E+02  0.53990161803E+02  0.00000000000E+00 0.  1.
         13   -1    0    0    0    0 -0.00000000000E+00 -0.00000000000E+00 -0.10000000000E+04  0.10000000000E+04  0.00000000000E+00 0.  1.
    9000005    2    1    2  501    0  0.62151854617E+02  0.25171163092E+02 -0.92983022920E+03  0.98501030800E+03  0.31806384774E+03 0.  0.
         13    1    3    3    0    0  0.94208161765E+02 -0.11946191342E+03 -0.65876404845E+03  0.67610383672E+03  0.00000000000E+00 0.  1.
          3    1    3    3  501    0 -0.32056307148E+02  0.14463307651E+03 -0.27106618075E+03  0.30890647127E+03  0.00000000000E+00 0.  1.
         21    1    1    2  502  501 -0.62151854617E+02 -0.25171163092E+02 -0.16179608995E+02  0.68979853805E+02  0.00000000000E+00 0.  1.
<mgrwt>
<rscale>  1 0.30000000E+03</rscale>
<asrwt>0</asrwt>
<pdfrwt beam="1">  1        1 0.19632828E+00 0.30000000E+03</pdfrwt>
<pdfrwt beam="2">0</pdfrwt>
<totfact> 0.10663948E+01</totfact>
</mgrwt>
</event>
<event>
 6    1  0.1940992E-004  0.3000000E+03  0.7818608E-02  0.1093470E+00
          1   -1    0    0  502    0  0.00000000000E+00  0.00000000000E+00  0.39039433661E+02  0.39039433661E+02  0.00000000000E+00 0.  1.
         13   -1    0    0    0    0 -0.00000000000E+00 -0.00000000000E+00 -0.10000000000E+04  0.10000000000E+04  0.00000000000E+00 0.  1.
    9000005    2    1    2  501    0 -0.13347817292E+02  0.41638551445E+02 -0.92534364475E+03  0.98264352693E+03  0.32774305018E+03 0.  0.
         13    1    3    3    0    0  0.25587497020E+01 -0.66415749153E+02 -0.18149494427E+02  0.68898498413E+02  0.00000000000E+00 0.  1.
          1    1    3    3  501    0 -0.15906566994E+02  0.10805430060E+03 -0.90719415032E+03  0.91374502851E+03  0.00000000000E+00 0.  1.
         21    1    1    2  502  501  0.13347817292E+02 -0.41638551445E+02 -0.35616921591E+02  0.56395906735E+02  0.00000000000E+00 0.  1.
<mgrwt>
<rscale>  1 0.30000000E+03</rscale>
<asrwt>0</asrwt>
<pdfrwt beam="1">  1        1 0.14196188E+00 0.30000000E+03</pdfrwt>
<pdfrwt beam="2">0</pdfrwt>
<totfact> 0.19760111E+01</totfact>
</mgrwt>
</event>
<event>
 6    1  0.1940992E-004  0.3000000E+03  0.7818608E-02  0.1093470E+00
          1   -1    0    0  502    0  0.00000000000E+00  0.00000000000E+00  0.33463574171E+02  0.33463574171E+02  0.00000000000E+00 0.  1.
         13   -1    0    0    0    0 -0.00000000000E+00 -0.00000000000E+00 -0.10000000000E+04  0.10000000000E+04  0.00000000000E+00 0.  1.
    9000005    2    1    2  501    0 -0.21384755721E+02 -0.12522396438E+02 -0.90244998432E+03  0.96475265673E+03  0.34017289175E+03 0.  0.
         13    1    3    3    0    0  0.15342196578E+03 -0.43060961260E+02 -0.35159381779E+03  0.38601911699E+03  0.00000000000E+00 0.  1.
          3    1    3    3  501    0 -0.17480672151E+03  0.30538564822E+02 -0.55085616653E+03  0.57873353975E+03  0.00000000000E+00 0.  1.
         21    1    1    2  502  501  0.21384755721E+02  0.12522396438E+02 -0.64086441509E+02  0.68710917437E+02  0.00000000000E+00 0. -1.
<mgrwt>
<rscale>  1 0.30000000E+03</rscale>
<asrwt>0</asrwt>
<pdfrwt beam="1">  1        1 0.12168598E+00 0.30000000E+03</pdfrwt>
<pdfrwt beam="2">0</pdfrwt>
<totfact> 0.25433653E+01</totfact>
</mgrwt>
</event>
<event>
 6    1  0.1940992E-004  0.3000000E+03  0.7818608E-02  0.1093470E+00
          1   -1    0    0  502    0  0.00000000000E+00  0.00000000000E+00  0.51153792754E+02  0.51153792754E+02  0.00000000000E+00 0.  1.
         13   -1    0    0    0    0 -0.00000000000E+00 -0.00000000000E+00 -0.10000000000E+04  0.10000000000E+04  0.00000000000E+00 0.  1.
    9000005    2    1    2  501    0  0.20482492889E+02 -0.69967176623E+01 -0.96740226973E+03  0.10226438992E+04  0.33085481196E+03 0.  0.
         13    1    3    3    0    0 -0.23816773598E+02 -0.52009506971E+02 -0.41826917568E+01  0.57356101945E+02  0.00000000000E+00 0.  1.
          3    1    3    3  501    0  0.44299266487E+02  0.45012789308E+02 -0.96321957798E+03  0.96528779730E+03  0.00000000000E+00 0.  1.
         21    1    1    2  502  501 -0.20482492889E+02  0.69967176623E+01  0.18556062488E+02  0.28509893512E+02  0.00000000000E+00 0.  1.
<mgrwt>
<rscale>  1 0.30000000E+03</rscale>
<asrwt>0</asrwt>
<pdfrwt beam="1">  1        1 0.18601418E+00 0.30000000E+03</pdfrwt>
<pdfrwt beam="2">0</pdfrwt>
<totfact> 0.11949434E+01</totfact>
</mgrwt>
</event>
<event>
 6    1  0.1940992E-004  0.3000000E+03  0.7818608E-02  0.1093470E+00
          1   -1    0    0  502    0  0.00000000000E+00  0.00000000000E+00  0.32688637065E+02  0.32688637065E+02  0.00000000000E+00 0.  1.
         13   -1    0    0    0    0 -0.00000000000E+00 -0.00000000000E+00 -0.10000000000E+04  0.10000000000E+04  0.00000000000E+00 0.  1.
    9000005    2    1    2  501    0 -0.29040076246E+02  0.17692568047E+02 -0.89497697808E+03  0.95275981733E+03  0.32497865349E+03 0.  0.
         13    1    3    3    0    0 -0.11867958526E+03  0.12777073321E+03 -0.37179089233E+03  0.41065639145E+03  0.00000000000E+00 0.  1.
          3    1    3    3  501    0  0.89639509011E+02 -0.11007816516E+03 -0.52318608575E+03  0.54210342588E+03  0.00000000000E+00 0.  1.
         21    1    1    2  502  501  0.29040076246E+02 -0.17692568047E+02 -0.72334384854E+02  0.79928819737E+02  0.00000000000E+00 0.  1.
<mgrwt>
<rscale>  1 0.30000000E+03</rscale>
<asrwt>0</asrwt>
<pdfrwt beam="1">  1        1 0.11886802E+00 0.30000000E+03</pdfrwt>
<pdfrwt beam="2">0</pdfrwt>
<totfact> 0.26382965E+01</totfact>
</mgrwt>
</event>
<event>
 6    1  0.1940992E-004  0.3000000E+03  0.7818608E-02  0.1093470E+00
          1   -1    0    0  502    0  0.00000000000E+00  0.00000000000E+00  0.28359078066E+02  0.28359078066E+02  0.00000000000E+00 0.  1.
         13   -1    0    0    0    0 -0.00000000000E+00 -0.00000000000E+00 -0.10000000000E+04  0.10000000000E+04  0.00000000000E+00 0.  1.
    9000005    2    1    2  501    0  0.11276348889E+02 -0.38933309838E+00 -0.94363738444E+03  0.99816792478E+03  0.32520821811E+03 0.  0.
         13    1    3    3    0    0 -0.52203760270E+02 -0.82939375724E+02 -0.85733715067E+03  0.86292013683E+03  0.00000000000E+00 0.  1.
          1    1    3    3  501    0  0.63480109160E+02  0.82550042626E+02 -0.86300233774E+02  0.13524778795E+03  0.00000000000E+00 0.  1.
         21    1    1    2  502  501 -0.11276348889E+02  0.38933309838E+00 -0.28003537492E+02  0.30191153283E+02  0.00000000000E+00 0. -1.
<mgrwt>
<rscale>  1 0.30000000E+03</rscale>
<asrwt>0</asrwt>
<pdfrwt beam="1">  1        1 0.10312414E+00 0.30000000E+03</pdfrwt>
<pdfrwt beam="2">0</pdfrwt>
<totfact> 0.32714444E+01</totfact>
</mgrwt>
</event>
<event>
 6    1  0.1940992E-004  0.3000000E+03  0.7818608E-02  0.1093470E+00
          1   -1    0    0  502    0  0.00000000000E+00  0.00000000000E+00  0.39897455054E+02  0.39897455054E+02  0.00000000000E+00 0.  1.
         13   -1    0    0    0    0 -0.00000000000E+00 -0.00000000000E+00 -0.10000000000E+04  0.10000000000E+04  0.00000000000E+00 0.  1.
    9000005    2    1    2  501    0  0.28143942382E+02 -0.36613954275E+02 -0.92206959001E+03  0.98007130022E+03  0.32892972132E+03 0.  0.
         13    1    3    3    0    0 -0.25190724315E+02 -0.81566285237E+02 -0.38320766385E+02  0.93574102267E+02  0.00000000000E+00 0.  1.
          1    1    3    3  501    0  0.53334666697E+02  0.44952330962E+02 -0.88374882362E+03  0.88649719796E+03  0.00000000000E+00 0.  1.
         21    1    1    2  502  501 -0.28143942382E+02  0.36613954275E+02 -0.38032954938E+02  0.59826154831E+02  0.00000000000E+00 0.  1.
<mgrwt>
<rscale>  1 0.30000000E+03</rscale>
<asrwt>0</asrwt>
<pdfrwt beam="1">  1        1 0.14508196E+00 0.30000000E+03</pdfrwt>
<pdfrwt beam="2">0</pdfrwt>
<totfact> 0.19037647E+01</totfact>
</mgrwt>
</event>
<event>
 6    1  0.1940992E-004  0.3000000E+03  0.7818608E-02  0.1093470E+00
          1   -1    0    0  502    0  0.00000000000E+00  0.00000000000E+00  0.25650683586E+02  0.25650683586E+02  0.00000000000E+00 0.  1.
         13   -1    0    0    0    0 -0.00000000000E+00 -0.00000000000E+00 -0.10000000000E+04  0.10000000000E+04  0.00000000000E+00 0.  1.
    9000005    2    1    2  501    0  0.10239977321E+01 -0.12083897160E+02 -0.95917761293E+03  0.10062277660E+04  0.30385120492E+03 0.  0.
         13    1    3    3    0    0  0.14746501210E+03 -0.21455110480E+02 -0.60006398369E+03  0.61829041403E+03  0.00000000000E+00 0.  1.
          3    1    3    3  501    0 -0.14644101437E+03  0.93712133200E+01 -0.35911362924E+03  0.38793735194E+03  0.00000000000E+00 0.  1.
         21    1    1    2  502  501 -0.10239977321E+01  0.12083897160E+02 -0.15171703487E+02  0.19422917614E+02  0.00000000000E+00 0.  1.
<mgrwt>
<rscale>  1 0.30000000E+03</rscale>
<asrwt>0</asrwt>
<pdfrwt beam="1">  1        1 0.93275410E-01 0.30000000E+03</pdfrwt>
<pdfrwt beam="2">0</pdfrwt>
<totfact> 0.37853874E+01</totfact>
</mgrwt>
</event>
<event>
 6    1  0.1940992E-004  0.3000000E+03  0.7818608E-02  0.1093470E+00
          3   -1    0    0  502    0  0.00000000000E+00  0.00000000000E+00  0.37182339712E+02  0.37182339712E+02  0.00000000000E+00 0.  1.
         13   -1    0    0    0    0 -0.00000000000E+00 -0.00000000000E+00 -0.10000000000E+04  0.10000000000E+04  0.00000000000E+00 0.  1.
    9000005    2    1    2  501    0  0.28797697744E+02  0.28838442752E+02 -0.92132600150E+03  0.97902289573E+03  0.32860807376E+03 0.  0.
         13    1    3    3    0    0 -0.86685981328E+02 -0.96955318515E+02 -0.20618573662E+03  0.24377725721E+03  0.00000000000E+00 0.  1.
          3    1    3    3  501    0  0.11548367907E+03  0.12579376127E+03 -0.71514026488E+03  0.73524563852E+03  0.00000000000E+00 0.  1.
         21    1    1    2  502  501 -0.28797697744E+02 -0.28838442752E+02 -0.41491658787E+02  0.58159443985E+02  0.00000000000E+00 0. -1.
<mgrwt>
<rscale>  1 0.30000000E+03</rscale>
<asrwt>0</asrwt>
<pdfrwt beam="1">  1        3 0.13520879E+00 0.30000000E+03</pdfrwt>
<pdfrwt beam="2">0</pdfrwt>
<totfact> 0.15344893E+00</totfact>
</mgrwt>
</event>
<event>
 6    1  0.1940992E-004  0.3000000E+03  0.7818608E-02  0.1093470E+00
          1   -1    0    0  502    0  0.00000000000E+00  0.00000000000E+00  0.32933421243E+02  0.32933421243E+02  0.00000000000E+00 0.  1.
         13   -1    0    0    0    0 -0.00000000000E+00 -0.00000000000E+00 -0.10000000000E+04  0.10000000000E+04  0.00000000000E+00 0.  1.
    9000005    2    1    2  501    0 -0.99030947714E+01 -0.98060446338E+01 -0.95473877422E+03  0.10143268482E+04  0.34225516518E+03 0.  0.
         13    1    3    3    0    0  0.92152991509E+02  0.64719002491E+02 -0.82703776404E+03  0.83466890818E+03  0.00000000000E+00 0.  1.
          1    1    3    3  501    0 -0.10205608628E+03 -0.74525047125E+02 -0.12770101018E+03  0.17965793998E+03  0.00000000000E+00 0.  1.
         21    1    1    2  502  501  0.99030947714E+01  0.98060446338E+01 -0.12327804537E+02  0.18606573089E+02  0.00000000000E+00 0. -1.
<mgrwt>
<rscale>  1 0.30000000E+03</rscale>
<asrwt>0</asrwt>
<pdfrwt beam="1">  1        1 0.11975815E+00 0.30000000E+03</pdfrwt>
<pdfrwt beam="2">0</pdfrwt>
<totfact> 0.26078048E+01</totfact>
</mgrwt>
</event>
<event>
 6    1  0.1940992E-004  0.3000000E+03  0.7818608E-02  0.1093470E+00
          1   -1    0    0  502    0  0.00000000000E+00  0.00000000000E+00  0.51130944315E+02  0.51130944315E+02  0.00000000000E+00 0.  1.
         13   -1    0    0    0    0 -0.00000000000E+00 -0.00000000000E+00 -0.10000000000E+04  0.10000000000E+04  0.00000000000E+00 0.  1.
    9000005    2    1    2  501    0  0.26734667028E+02 -0.14236741002E+02 -0.95185295927E+03  0.10206952597E+04  0.36725649070E+03 0.  0.
         13    1    3    3    0    0  0.23916060121E+02 -0.18062690256E+03 -0.66045073067E+03  0.68512277988E+03  0.00000000000E+00 0.  1.
          1    1    3    3  501    0  0.28186069074E+01  0.16639016155E+03 -0.29140222859E+03  0.33557247986E+03  0.00000000000E+00 0.  1.
         21    1    1    2  502  501 -0.26734667028E+02  0.14236741002E+02  0.29839035821E+01  0.30435684583E+02  0.00000000000E+00 0.  1.
<mgrwt>
<rscale>  1 0.30000000E+03</rscale>
<asrwt>0</asrwt>
<pdfrwt beam="1">  1        1 0.18593110E+00 0.30000000E+03</pdfrwt>
<pdfrwt beam="2">0</pdfrwt>
<totfact> 0.11960431E+01</totfact>
</mgrwt>
</event>
<event>
 6    1  0.1940992E-004  0.3000000E+03  0.7818608E-02  0.1093470E+00
          1   -1    0    0  502    0  0.00000000000E+00  0.00000000000E+00  0.44213673519E+02  0.44213673519E+02  0.00000000000E+00 0.  1.
         13   -1    0    0    0    0 -0.00000000000E+00 -0.00000000000E+00 -0.10000000000E+04  0.10000000000E+04  0.00000000000E+00 0.  1.
    9000005    2    1    2  501    0 -0.99843190489E+00 -0.16734741514E+02 -0.96728619582E+03  0.10238840047E+04  0.33528319669E+03 0.  0.
         13    1    3    3    0    0 -0.13722015443E+03  0.88438425484E+02 -0.44743156157E+03  0.47628324364E+03  0.00000000000E+00 0.  1.
          1    1    3    3  501    0  0.13622172253E+03 -0.10517316700E+03 -0.51985463425E+03  0.54760076105E+03  0.00000000000E+00 0.  1.
         21    1    1    2  502  501  0.99843190489E+00  0.16734741514E+02  0.11499869343E+02  0.20329668830E+02  0.00000000000E+00 0.  1.
<mgrwt>
<rscale>  1 0.30000000E+03</rscale>
<asrwt>0</asrwt>
<pdfrwt beam="1">  1        1 0.16077733E+00 0.30000000E+03</pdfrwt>
<pdfrwt beam="2">0</pdfrwt>
<totfact> 0.15861485E+01</totfact>
</mgrwt>
</event>
<event>
 6    1  0.1940992E-004  0.3000000E+03  0.7818608E-02  0.1093470E+00
          1   -1    0    0  502    0  0.00000000000E+00  0.00000000000E+00  0.31668839570E+02  0.31668839570E+02  0.00000000000E+00 0.  1.
         13   -1    0    0    0    0 -0.00000000000E+00 -0.00000000000E+00 -0.10000000000E+04  0.10000000000E+04  0.00000000000E+00 0.  1.
    9000005    2    1    2  501    0 -0.94541517290E+01 -0.75619932442E+01 -0.96132334624E+03  0.10176804806E+04  0.33374304465E+03 0.  0.
         13    1    3    3    0    0 -0.23079341879E+02  0.16042964167E+03 -0.39970363302E+03  0.43131580100E+03  0.00000000000E+00 0.  1.
          3    1    3    3  501    0  0.13625190150E+02 -0.16799163491E+03 -0.56161971322E+03  0.58636467960E+03  0.00000000000E+00 0.  1.
         21    1    1    2  502  501  0.94541517290E+01  0.75619932442E+01 -0.70078141885E+01  0.13988358962E+02  0.00000000000E+00 0. -1.
<mgrwt>
<rscale>  1 0.30000000E+03</rscale>
<asrwt>0</asrwt>
<pdfrwt beam="1">  1        1 0.11515966E+00 0.30000000E+03</pdfrwt>
<pdfrwt beam="2">0</pdfrwt>
<totfact> 0.27707071E+01</totfact>
</mgrwt>
</event>
<event>
 6    1  0.1940992E-004  0.3000000E+03  0.7818608E-02  0.1093470E+00
          1   -1    0    0  502    0  0.00000000000E+00  0.00000000000E+00  0.47870920189E+02  0.47870920189E+02  0.00000000000E+00 0.  1.
         13   -1    0    0    0    0 -0.00000000000E+00 -0.00000000000E+00 -0.10000000000E+04  0.10000000000E+04  0.00000000000E+00 0.  1.
    9000005    2    1    2  501    0  0.19572889354E+02  0.15462906293E+02 -0.96715890010E+03  0.10187488501E+04  0.31910920081E+03 0.  0.
         13    1    3    3    0    0 -0.49653145931E+02 -0.10161232682E+03 -0.13759522744E+03  0.17810936662E+03  0.00000000000E+00 0.  1.
          1    1    3    3  501    0  0.69226035285E+02  0.11707523311E+03 -0.82956367267E+03  0.84063948347E+03  0.00000000000E+00 0.  1.
         21    1    1    2  502  501 -0.19572889354E+02 -0.15462906293E+02  0.15029820294E+02  0.29122070098E+02  0.00000000000E+00 0.  1.
<mgrwt>
<rscale>  1 0.30000000E+03</rscale>
<asrwt>0</asrwt>
<pdfrwt beam="1">  1        1 0.17407644E+00 0.30000000E+03</pdfrwt>
<pdfrwt beam="2">0</pdfrwt>
<totfact> 0.13648233E+01</totfact>
</mgrwt>
</event>
<event>
 6    1  0.1940992E-004  0.3000000E+03  0.7818608E-02  0.1093470E+00
          1   -1    0    0  502    0  0.00000000000E+00  0.00000000000E+00  0.31246347411E+02  0.31246347411E+02  0.00000000000E+00 0.  1.
         13   -1    0    0    0    0 -0.00000000000E+00 -0.00000000000E+00 -0.10000000000E+04  0.10000000000E+04  0.00000000000E+00 0.  1.
    9000005    2    1    2  501    0 -0.31253016871E+01 -0.13796407970E+02 -0.96732022533E+03  0.10170279404E+04  0.31374719902E+03 0.  0.
         13    1    3    3    0    0 -0.69138468642E+02  0.13346679994E+03 -0.52908644234E+03  0.55002361585E+03  0.00000000000E+00 0.  1.
          1    1    3    3  501    0  0.66013166955E+02 -0.14726320791E+03 -0.43823378299E+03  0.46700432457E+03  0.00000000000E+00 0.  1.
         21    1    1    2  502  501  0.31253016871E+01  0.13796407970E+02 -0.14334272621E+01  0.14218406986E+02  0.00000000000E+00 0.  1.
<mgrwt>
<rscale>  1 0.30000000E+03</rscale>
<asrwt>0</asrwt>
<pdfrwt beam="1">  1        1 0.11362332E+00 0.30000000E+03</pdfrwt>
<pdfrwt beam="2">0</pdfrwt>
<totfact> 0.28282792E+01</totfact>
</mgrwt>
</event>
<event>
 6    1  0.1940992E-004  0.3000000E+03  0.7818608E-02  0.1093470E+00
          1   -1    0    0  502    0  0.00000000000E+00  0.00000000000E+00  0.33242999971E+02  0.33242999971E+02  0.00000000000E+00 0.  1.
         13   -1    0    0    0    0 -0.00000000000E+00 -0.00000000000E+00 -0.10000000000E+04  0.10000000000E+04  0.00000000000E+00 0.  1.
    9000005    2    1    2  501    0 -0.22286440172E+02  0.30204744763E+01 -0.92836547282E+03  0.98874897742E+03  0.33949415391E+03 0.  0.
         13    1    3    3    0    0 -0.12234501303E+03 -0.52404660089E+02 -0.82149931586E+03  0.83221131726E+03  0.00000000000E+00 0.  1.
          3    1    3    3  501    0  0.10005857286E+03  0.55425134565E+02 -0.10686615696E+03  0.15653766016E+03  0.00000000000E+00 0.  1.
         21    1    1    2  502  501  0.22286440172E+02 -0.30204744763E+01 -0.38391527209E+02  0.44494022554E+02  0.00000000000E+00 0. -1.
<mgrwt>
<rscale>  1 0.30000000E+03</rscale>
<asrwt>0</asrwt>
<pdfrwt beam="1">  1        1 0.12088389E+00 0.30000000E+03</pdfrwt>
<pdfrwt beam="2">0</pdfrwt>
<totfact> 0.25699155E+01</totfact>
</mgrwt>
</event>
<event>
 6    1  0.1940992E-004  0.3000000E+03  0.7818608E-02  0.1093470E+00
          1   -1    0    0  502    0  0.00000000000E+00  0.00000000000E+00  0.31681170706E+02  0.31681170706E+02  0.00000000000E+00 0.  1.
         13   -1    0    0    0    0 -0.00000000000E+00 -0.00000000000E+00 -0.10000000000E+04  0.10000000000E+04  0.00000000000E+00 0.  1.
    9000005    2    1    2  501    0  0.78222196322E+01 -0.75592177029E+01 -0.96628907048E+03  0.10206155115E+04  0.32836431862E+03 0.  0.
         13    1    3    3    0    0  0.57785967913E+02  0.11938953676E+03 -0.77140035538E+03  0.78272063206E+03  0.00000000000E+00 0.  1.
          3    1    3    3  501    0 -0.49963748281E+02 -0.12694875446E+03 -0.19488871510E+03  0.23789487946E+03  0.00000000000E+00 0.  1.
         21    1    1    2  502  501 -0.78222196322E+01  0.75592177029E+01 -0.20297588132E+01  0.11065659180E+02  0.00000000000E+00 0. -1.
<mgrwt>
<rscale>  1 0.30000000E+03</rscale>
<asrwt>0</asrwt>
<pdfrwt beam="1">  1        1 0.11520450E+00 0.30000000E+03</pdfrwt>
<pdfrwt beam="2">0</pdfrwt>
<totfact> 0.27690517E+01</totfact>
</mgrwt>
</event>
<event>
 6    1  0.1940992E-004  0.3000000E+03  0.7818608E-02  0.1093470E+00
          1   -1    0    0  502    0  0.00000000000E+00  0.00000000000E+00  0.34630628468E+02  0.34630628468E+02  0.00000000000E+00 0.  1.
         13   -1    0    0    0    0 -0.00000000000E+00 -0.00000000000E+00 -0.10000000000E+04  0.10000000000E+04  0.00000000000E+00 0.  1.
    9000005    2    1    2  501    0 -0.13521321211E+02 -0.86648442067E+01 -0.96251537131E+03  0.10183195595E+04  0.33208580166E+03 0.  0.
         13    1    3    3    0    0 -0.14555975817E+03  0.86646352862E+02 -0.50977304669E+03  0.53718134070E+03  0.00000000000E+00 0.  1.
          3    1    3    3  501    0  0.13203843696E+03 -0.95311197069E+02 -0.45274232462E+03  0.48113821884E+03  0.00000000000E+00 0.  1.
         21    1    1    2  502  501  0.13521321211E+02  0.86648442067E+01 -0.28540002175E+01  0.16311068931E+02  0.00000000000E+00 0. -1.
<mgrwt>
<rscale>  1 0.30000000E+03</rscale>
<asrwt>0</asrwt>
<pdfrwt beam="1">  1        1 0.12592982E+00 0.30000000E+03</pdfrwt>
<pdfrwt beam="2">0</pdfrwt>
<totfact> 0.24086828E+01</totfact>
</mgrwt>
</event>
<event>
 6    1  0.1940992E-004  0.3000000E+03  0.7818608E-02  0.1093470E+00
          1   -1    0    0  502    0  0.00000000000E+00  0.00000000000E+00  0.30095336884E+02  0.30095336884E+02  0.00000000000E+00 0.  1.
         13   -1    0    0    0    0 -0.00000000000E+00 -0.00000000000E+00 -0.10000000000E+04  0.10000000000E+04  0.00000000000E+00 0.  1.
    9000005    2    1    2  501    0 -0.41603588769E+01 -0.88209460111E+01 -0.95861562632E+03  0.10151768910E+04  0.33398365740E+03 0.  0.
         13    1    3    3    0    0 -0.26433426408E+02  0.91335383433E+02 -0.63815175895E+02  0.11451312140E+03  0.00000000000E+00 0.  1.
          3    1    3    3  501    0  0.22273067531E+02 -0.10015632944E+03 -0.89480045043E+03  0.90066376964E+03  0.00000000000E+00 0.  1.
         21    1    1    2  502  501  0.41603588769E+01  0.88209460111E+01 -0.11289036795E+02  0.14918445840E+02  0.00000000000E+00 0.  1.
<mgrwt>
<rscale>  1 0.30000000E+03</rscale>
<asrwt>0</asrwt>
<pdfrwt beam="1">  1        1 0.10943782E+00 0.30000000E+03</pdfrwt>
<pdfrwt beam="2">0</pdfrwt>
<totfact> 0.29940129E+01</totfact>
</mgrwt>
</event>
<event>
 6    1  0.1940992E-004  0.3000000E+03  0.7818608E-02  0.1093470E+00
          1   -1    0    0  502    0  0.00000000000E+00  0.00000000000E+00  0.30884376455E+02  0.30884376455E+02  0.00000000000E+00 0.  1.
         13   -1    0    0    0    0 -0.00000000000E+00 -0.00000000000E+00 -0.10000000000E+04  0.10000000000E+04  0.00000000000E+00 0.  1.
    9000005    2    1    2  501    0  0.29614158956E+02 -0.34096322663E+01 -0.85214183819E+03  0.91017194767E+03  0.31840012238E+03 0.  0.
         13    1    3    3    0    0  0.84555891087E+02 -0.60118525778E+02 -0.81731499819E+03  0.82387362024E+03  0.00000000000E+00 0.  1.
          1    1    3    3  501    0 -0.54941732130E+02  0.56708893512E+02 -0.34826839998E+02  0.86298327429E+02  0.00000000000E+00 0.  1.
         21    1    1    2  502  501 -0.29614158956E+02  0.34096322663E+01 -0.11697378536E+03  0.12071242879E+03  0.00000000000E+00 0.  1.
<mgrwt>
<rscale>  1 0.30000000E+03</rscale>
<asrwt>0</asrwt>
<pdfrwt beam="1">  1        1 0.11230706E+00 0.30000000E+03</pdfrwt>
<pdfrwt beam="2">0</pdfrwt>
<totfact> 0.28789638E+01</totfact>
</mgrwt>
</event>
<event>
 6    1  0.1940992E-004  0.3000000E+03  0.7818608E-02  0.1093470E+00
          1   -1    0    0  502    0  0.00000000000E+00  0.00000000000E+00  0.44318092891E+02  0.44318092891E+02  0.00000000000E+00 0.  1.
         13   -1    0    0    0    0 -0.00000000000E+00 -0.00000000000E+00 -0.10000000000E+04  0.10000000000E+04  0.00000000000E+00 0.  1.
    9000005    2    1    2  501    0  0.13716616801E+02  0.26578184029E+01 -0.96804380612E+03  0.10256626346E+04  0.33864409040E+03 0.  0.
         13    1    3    3    0    0 -0.13894586140E+03  0.13734831653E+02 -0.20905298870E+03  0.25139162692E+03  0.00000000000E+00 0.  1.
          3    1    3    3  501    0  0.15266247820E+03 -0.11077013250E+02 -0.75899081742E+03  0.77427100772E+03  0.00000000000E+00 0.  1.
         21    1    1    2  502  501 -0.13716616801E+02 -0.26578184029E+01  0.12361899012E+02  0.18655458245E+02  0.00000000000E+00 0. -1.
<mgrwt>
<rscale>  1 0.30000000E+03</rscale>
<asrwt>0</asrwt>
<pdfrwt beam="1">  1        1 0.16115704E+00 0.30000000E+03</pdfrwt>
<pdfrwt beam="2">0</pdfrwt>
<totfact> 0.15792865E+01</totfact>
</mgrwt>
</event>
<event>
 6    1  0.1940992E-004  0.3000000E+03  0.7818608E-02  0.1093470E+00
          1   -1    0    0  502    0  0.00000000000E+00  0.00000000000E+00  0.35394593899E+02  0.35394593899E+02  0.00000000000E+00 0.  1.
         13   -1    0    0    0    0 -0.00000000000E+00 -0.00000000000E+00 -0.10000000000E+04  0.10000000000E+04  0.00000000000E+00 0.  1.
    9000005    2    1    2  501    0 -0.30431110316E+02 -0.23179640592E+01 -0.95178096707E+03  0.10022903394E+04  0.31267793280E+03 0.  0.
         13    1    3    3    0    0 -0.46872514088E+02  0.14716779970E+03 -0.60304601700E+03  0.62251095771E+03  0.00000000000E+00 0.  1.
          3    1    3    3  501    0  0.16441403772E+02 -0.14948576376E+03 -0.34873495007E+03  0.37977938165E+03  0.00000000000E+00 0.  1.
         21    1    1    2  502  501  0.30431110316E+02  0.23179640592E+01 -0.12824439031E+02  0.33104254543E+02  0.00000000000E+00 0.  1.
<mgrwt>
<rscale>  1 0.30000000E+03</rscale>
<asrwt>0</asrwt>
<pdfrwt beam="1">  1        1 0.12870789E+00 0.30000000E+03</pdfrwt>
<pdfrwt beam="2">0</pdfrwt>
<totfact> 0.23254349E+01</totfact>
</mgrwt>
</event>
<event>
 6    1  0.1940992E-004  0.3000000E+03  0.7818608E-02  0.1093470E+00
          1   -1    0    0  502    0  0.00000000000E+00  0.00000000000E+00  0.31151588641E+02  0.31151588641E+02  0.00000000000E+00 0.  1.
         13   -1    0    0    0    0 -0.00000000000E+00 -0.00000000000E+00 -0.10000000000E+04  0.10000000000E+04  0.00000000000E+00 0.  1.
    9000005    2    1    2  501    0 -0.34989266783E+01  0.21905538738E+02 -0.91254408723E+03  0.97063487995E+03  0.33000494529E+03 0.  0.
         13    1    3    3    0    0  0.32731649741E+02  0.16427542024E+03 -0.33292973731E+03  0.37269288238E+03  0.00000000000E+00 0.  1.
          1    1    3    3  501    0 -0.36230576419E+02 -0.14236988150E+03 -0.57961434992E+03  0.59794199757E+03  0.00000000000E+00 0.  1.
         21    1    1    2  502  501  0.34989266783E+01 -0.21905538738E+02 -0.56304324127E+02  0.60516708690E+02  0.00000000000E+00 0. -1.
<mgrwt>
<rscale>  1 0.30000000E+03</rscale>
<asrwt>0</asrwt>
<pdfrwt beam="1">  1        1 0.11327874E+00 0.30000000E+03</pdfrwt>
<pdfrwt beam="2">0</pdfrwt>
<totfact> 0.28414239E+01</totfact>
</mgrwt>
</event>
<event>
 6    1  0.1940992E-004  0.3000000E+03  0.7818608E-02  0.1093470E+00
          1   -1    0    0  502    0  0.00000000000E+00  0.00000000000E+00  0.39783410264E+02  0.39783410264E+02  0.00000000000E+00 0.  1.
         13   -1    0    0    0    0 -0.00000000000E+00 -0.00000000000E+00 -0.10000000000E+04  0.10000000000E+04  0.00000000000E+00 0.  1.
    9000005    2    1    2  501    0  0.49031569010E+01  0.24949471835E+02 -0.95807602278E+03  0.10142667663E+04  0.33193507000E+03 0.  0.
         13    1    3    3    0    0  0.16607312509E+03 -0.10734810103E+02 -0.43426470311E+03  0.46506058895E+03  0.00000000000E+00 0.  1.
          1    1    3    3  501    0 -0.16116996819E+03  0.35684281937E+02 -0.52381131966E+03  0.54920617734E+03  0.00000000000E+00 0.  1.
         21    1    1    2  502  501 -0.49031569010E+01 -0.24949471835E+02 -0.21405669571E+01  0.25516643967E+02  0.00000000000E+00 0. -1.
<mgrwt>
<rscale>  1 0.30000000E+03</rscale>
<asrwt>0</asrwt>
<pdfrwt beam="1">  1        1 0.14466725E+00 0.30000000E+03</pdfrwt>
<pdfrwt beam="2">0</pdfrwt>
<totfact> 0.19131729E+01</totfact>
</mgrwt>
</event>
<event>
 6    1  0.1940992E-004  0.3000000E+03  0.7818608E-02  0.1093470E+00
          1   -1    0    0  502    0  0.00000000000E+00  0.00000000000E+00  0.41875998450E+02  0.41875998450E+02  0.00000000000E+00 0.  1.
         13   -1    0    0    0    0 -0.00000000000E+00 -0.00000000000E+00 -0.10000000000E+04  0.10000000000E+04  0.00000000000E+00 0.  1.
    9000005    2    1    2  501    0 -0.50873262976E+02 -0.60046637154E+02 -0.83277515488E+03  0.89386917131E+03  0.31510942434E+03 0.  0.
         13    1    3    3    0    0 -0.10266641193E+03  0.34276594758E+01 -0.64621570070E+02  0.12135933547E+03  0.00000000000E+00 0.  1.
          1    1    3    3  501    0  0.51793148950E+02 -0.63474296630E+02 -0.76815358481E+03  0.77250983584E+03  0.00000000000E+00 0.  1.
         21    1    1    2  502  501  0.50873262976E+02  0.60046637154E+02 -0.12534884667E+03  0.14800682714E+03  0.00000000000E+00 0. -1.
<mgrwt>
<rscale>  1 0.30000000E+03</rscale>
<asrwt>0</asrwt>
<pdfrwt beam="1">  1        1 0.15227668E+00 0.30000000E+03</pdfrwt>
<pdfrwt beam="2">0</pdfrwt>
<totfact> 0.17493844E+01</totfact>
</mgrwt>
</event>
<event>
 6    1  0.1940992E-004  0.3000000E+03  0.7818608E-02  0.1093470E+00
          1   -1    0    0  502    0  0.00000000000E+00  0.00000000000E+00  0.31285485963E+02  0.31285485963E+02  0.00000000000E+00 0.  1.
         13   -1    0    0    0    0 -0.00000000000E+00 -0.00000000000E+00 -0.10000000000E+04  0.10000000000E+04  0.00000000000E+00 0.  1.
    9000005    2    1    2  501    0 -0.23183015078E+02 -0.26689464155E+01 -0.96712947081E+03  0.10078955773E+04  0.28278880115E+03 0.  0.
         13    1    3    3    0    0  0.89871414037E+02  0.49338589878E+02 -0.15214263836E+03  0.18346266628E+03  0.00000000000E+00 0.  1.
          3    1    3    3  501    0 -0.11305442911E+03 -0.52007536294E+02 -0.81498683245E+03  0.82443291106E+03  0.00000000000E+00 0.  1.
         21    1    1    2  502  501  0.23183015078E+02  0.26689464155E+01 -0.15850432238E+01  0.23389908616E+02  0.00000000000E+00 0.  1.
<mgrwt>
<rscale>  1 0.30000000E+03</rscale>
<asrwt>0</asrwt>
<pdfrwt beam="1">  1        1 0.11376564E+00 0.30000000E+03</pdfrwt>
<pdfrwt beam="2">0</pdfrwt>
<totfact> 0.28228752E+01</totfact>
</mgrwt>
</event>
<event>
 6    1  0.1940992E-004  0.3000000E+03  0.7818608E-02  0.1093470E+00
          1   -1    0    0  502    0  0.00000000000E+00  0.00000000000E+00  0.36275914932E+02  0.36275914932E+02  0.00000000000E+00 0.  1.
         13   -1    0    0    0    0 -0.00000000000E+00 -0.00000000000E+00 -0.10000000000E+04  0.10000000000E+04  0.00000000000E+00 0.  1.
    9000005    2    1    2  501    0 -0.87396562474E+01 -0.56628550140E+01 -0.96953641747E+03  0.10243497787E+04  0.33042874380E+03 0.  0.
         13    1    3    3    0    0  0.11278890739E+03 -0.42071397108E+02 -0.81758728710E+03  0.82640202814E+03  0.00000000000E+00 0.  1.
          3    1    3    3  501    0 -0.12152856364E+03  0.36408542094E+02 -0.15194913037E+03  0.19794775053E+03  0.00000000000E+00 0.  1.
         21    1    1    2  502  501  0.87396562474E+01  0.56628550140E+01  0.58123324050E+01  0.11926136265E+02  0.00000000000E+00 0. -1.
<mgrwt>
<rscale>  1 0.30000000E+03</rscale>
<asrwt>0</asrwt>
<pdfrwt beam="1">  1        1 0.13191270E+00 0.30000000E+03</pdfrwt>
<pdfrwt beam="2">0</pdfrwt>
<totfact> 0.22339593E+01</totfact>
</mgrwt>
</event>
<event>
 6    1  0.1940992E-004  0.3000000E+03  0.7818608E-02  0.1093470E+00
          1   -1    0    0  502    0  0.00000000000E+00  0.00000000000E+00  0.27722902987E+02  0.27722902987E+02  0.00000000000E+00 0.  1.
         13   -1    0    0    0    0 -0.00000000000E+00 -0.00000000000E+00 -0.10000000000E+04  0.10000000000E+04  0.00000000000E+00 0.  1.
    9000005    2    1    2  501    0  0.12777314385E+02 -0.45205186135E+01 -0.96247343529E+03  0.10109954814E+04  0.30914892013E+03 0.  0.
         13    1    3    3    0    0  0.88640240756E+02 -0.41968726763E+02 -0.85973679315E+02  0.13042216009E+03  0.00000000000E+00 0.  1.
          1    1    3    3  501    0 -0.75862926370E+02  0.37448208150E+02 -0.87649975598E+03  0.88057332126E+03  0.00000000000E+00 0.  1.
         21    1    1    2  502  501 -0.12777314385E+02  0.45205186135E+01 -0.98036617203E+01  0.16727421635E+02  0.00000000000E+00 0.  1.
<mgrwt>
<rscale>  1 0.30000000E+03</rscale>
<asrwt>0</asrwt>
<pdfrwt beam="1">  1        1 0.10081077E+00 0.30000000E+03</pdfrwt>
<pdfrwt beam="2">0</pdfrwt>
<totfact> 0.33824724E+01</totfact>
</mgrwt>
</event>
<event>
 6    1  0.1940992E-004  0.3000000E+03  0.7818608E-02  0.1093470E+00
          1   -1    0    0  502    0  0.00000000000E+00  0.00000000000E+00  0.36581129043E+02  0.36581129043E+02  0.00000000000E+00 0.  1.
         13   -1    0    0    0    0 -0.00000000000E+00 -0.00000000000E+00 -0.10000000000E+04  0.10000000000E+04  0.00000000000E+00 0.  1.
    9000005    2    1    2  501    0 -0.10291168455E+02 -0.14454319642E+01 -0.97168941959E+03  0.10232995856E+04  0.32070814820E+03 0.  0.
         13    1    3    3    0    0  0.14460935322E+03 -0.26479040624E+02 -0.30762431915E+03  0.34094827521E+03  0.00000000000E+00 0.  1.
          1    1    3    3  501    0 -0.15490052168E+03  0.25033608660E+02 -0.66406510043E+03  0.68235131039E+03  0.00000000000E+00 0.  1.
         21    1    1    2  502  501  0.10291168455E+02  0.14454319642E+01  0.82705486289E+01  0.13281543448E+02  0.00000000000E+00 0.  1.
<mgrwt>
<rscale>  1 0.30000000E+03</rscale>
<asrwt>0</asrwt>
<pdfrwt beam="1">  1        1 0.13302257E+00 0.30000000E+03</pdfrwt>
<pdfrwt beam="2">0</pdfrwt>
<totfact> 0.22033789E+01</totfact>
</mgrwt>
</event>
<event>
 6    1  0.1940992E-004  0.3000000E+03  0.7818608E-02  0.1093470E+00
          1   -1    0    0  502    0  0.00000000000E+00  0.00000000000E+00  0.52892411764E+02  0.52892411764E+02  0.00000000000E+00 0.  1.
         13   -1    0    0    0    0 -0.00000000000E+00 -0.00000000000E+00 -0.10000000000E+04  0.10000000000E+04  0.00000000000E+00 0.  1.
    9000005    2    1    2  501    0  0.36257794491E+02  0.70400761239E+02 -0.90387111950E+03  0.96266887230E+03  0.32167912924E+03 0.  0.
         13    1    3    3    0    0  0.17348643103E+02  0.67759208672E+02 -0.12451165991E+02  0.71044474183E+02  0.00000000000E+00 0.  1.
          1    1    3    3  501    0  0.18909151388E+02  0.26415525661E+01 -0.89141995351E+03  0.89162439812E+03  0.00000000000E+00 0.  1.
         21    1    1    2  502  501 -0.36257794491E+02 -0.70400761239E+02 -0.43236468734E+02  0.90223539461E+02  0.00000000000E+00 0.  1.
<mgrwt>
<rscale>  1 0.30000000E+03</rscale>
<asrwt>0</asrwt>
<pdfrwt beam="1">  1        1 0.19233645E+00 0.30000000E+03</pdfrwt>
<pdfrwt beam="2">0</pdfrwt>
<totfact> 0.11142822E+01</totfact>
</mgrwt>
</event>
<event>
 6    1  0.1940992E-004  0.3000000E+03  0.7818608E-02  0.1093470E+00
          1   -1    0    0  502    0  0.00000000000E+00  0.00000000000E+00  0.30713616882E+02  0.30713616882E+02  0.00000000000E+00 0.  1.
         13   -1    0    0    0    0 -0.00000000000E+00 -0.00000000000E+00 -0.10000000000E+04  0.10000000000E+04  0.00000000000E+00 0.  1.
    9000005    2    1    2  501    0  0.16163883916E+02  0.10499029895E+00 -0.95616423749E+03  0.10098936055E+04  0.32461325189E+03 0.  0.
         13    1    3    3    0    0  0.41656604937E+02  0.96092622559E+02 -0.90107192862E+02  0.13816067114E+03  0.00000000000E+00 0.  1.
          3    1    3    3  501    0 -0.25492721020E+02 -0.95987632260E+02 -0.86605704463E+03  0.87173293440E+03  0.00000000000E+00 0.  1.
         21    1    1    2  502  501 -0.16163883916E+02 -0.10499029895E+00 -0.13122145630E+02  0.20820011339E+02  0.00000000000E+00 0. -1.
<mgrwt>
<rscale>  1 0.30000000E+03</rscale>
<asrwt>0</asrwt>
<pdfrwt beam="1">  1        1 0.11168612E+00 0.30000000E+03</pdfrwt>
<pdfrwt beam="2">0</pdfrwt>
<totfact> 0.29033253E+01</totfact>
</mgrwt>
</event>
<event>
 6    1  0.1940992E-004  0.3000000E+03  0.7818608E-02  0.1093470E+00
          1   -1    0    0  502    0  0.00000000000E+00  0.00000000000E+00  0.38595935925E+02  0.38595935925E+02  0.00000000000E+00 0.  1.
         13   -1    0    0    0    0 -0.00000000000E+00 -0.00000000000E+00 -0.10000000000E+04  0.10000000000E+04  0.00000000000E+00 0.  1.
    9000005    2    1    2  501    0  0.92045485199E+01 -0.10354381809E+02 -0.96838262805E+03  0.10230834477E+04  0.32976186818E+03 0.  0.
         13    1    3    3    0    0 -0.10163278915E+03 -0.45685490136E+02 -0.10904603384E+03  0.15590838764E+03  0.00000000000E+00 0.  1.
          1    1    3    3  501    0  0.11083733767E+03  0.35331108327E+02 -0.85933659421E+03  0.86717506005E+03  0.00000000000E+00 0.  1.
         21    1    1    2  502  501 -0.92045485199E+01  0.10354381809E+02  0.69785639698E+01  0.15512488233E+02  0.00000000000E+00 0.  1.
<mgrwt>
<rscale>  1 0.30000000E+03</rscale>
<asrwt>0</asrwt>
<pdfrwt beam="1">  1        1 0.14034915E+00 0.30000000E+03</pdfrwt>
<pdfrwt beam="2">0</pdfrwt>
<totfact> 0.20147168E+01</totfact>
</mgrwt>
</event>
<event>
 6    1  0.1940992E-004  0.3000000E+03  0.7818608E-02  0.1093470E+00
          1   -1    0    0  502    0  0.00000000000E+00  0.00000000000E+00  0.57289038932E+02  0.57289038932E+02  0.00000000000E+00 0.  1.
         13   -1    0    0    0    0 -0.00000000000E+00 -0.00000000000E+00 -0.10000000000E+04  0.10000000000E+04  0.00000000000E+00 0.  1.
    9000005    2    1    2  501    0  0.15009560302E+02 -0.16462167857E+02 -0.96971508186E+03  0.10222817195E+04  0.32282547027E+03 0.  0.
         13    1    3    3    0    0 -0.10892017547E+03  0.16540063461E+02 -0.11983992260E+03  0.16278447522E+03  0.00000000000E+00 0.  1.
          3    1    3    3  501    0  0.12392973577E+03 -0.33002231317E+02 -0.84987515926E+03  0.85949724433E+03  0.00000000000E+00 0.  1.
         21    1    1    2  502  501 -0.15009560302E+02  0.16462167857E+02  0.27004120792E+02  0.35007319388E+02  0.00000000000E+00 0.  1.
<mgrwt>
<rscale>  1 0.30000000E+03</rscale>
<asrwt>0</asrwt>
<pdfrwt beam="1">  1        1 0.20832422E+00 0.30000000E+03</pdfrwt>
<pdfrwt beam="2">0</pdfrwt>
<totfact> 0.93540012E+00</totfact>
</mgrwt>
</event>
<event>
 6    1  0.1940992E-004  0.3000000E+03  0.7818608E-02  0.1093470E+00
          1   -1    0    0  502    0  0.00000000000E+00  0.00000000000E+00  0.31990848738E+02  0.31990848738E+02  0.00000000000E+00 0.  1.
         13   -1    0    0    0    0 -0.00000000000E+00 -0.00000000000E+00 -0.10000000000E+04  0.10000000000E+04  0.00000000000E+00 0.  1.
    9000005    2    1    2  501    0 -0.61669964632E+01  0.83986442638E+01 -0.96741242172E+03  0.10215541272E+04  0.32799004860E+03 0.  0.
         13    1    3    3    0    0 -0.52591720775E+02  0.61595884859E+02 -0.38001921866E+02  0.89465569865E+02  0.00000000000E+00 0.  1.
          3    1    3    3  501    0  0.46424724312E+02 -0.53197240595E+02 -0.92941049985E+03  0.93208855731E+03  0.00000000000E+00 0.  1.
         21    1    1    2  502  501  0.61669964632E+01 -0.83986442638E+01 -0.59672954482E+00  0.10436721564E+02  0.00000000000E+00 0.  1.
<mgrwt>
<rscale>  1 0.30000000E+03</rscale>
<asrwt>0</asrwt>
<pdfrwt beam="1">  1        1 0.11633060E+00 0.30000000E+03</pdfrwt>
<pdfrwt beam="2">0</pdfrwt>
<totfact> 0.27279255E+01</totfact>
</mgrwt>
</event>
<event>
 6    1  0.1940992E-004  0.3000000E+03  0.7818608E-02  0.1093470E+00
          1   -1    0    0  502    0  0.00000000000E+00  0.00000000000E+00  0.37625662565E+02  0.37625662565E+02  0.00000000000E+00 0.  1.
         13   -1    0    0    0    0 -0.00000000000E+00 -0.00000000000E+00 -0.10000000000E+04  0.10000000000E+04  0.00000000000E+00 0.  1.
    9000005    2    1    2  501    0 -0.14872815566E+02  0.45242252868E+00 -0.96695126218E+03  0.10220579534E+04  0.33073601453E+03 0.  0.
         13    1    3    3    0    0 -0.11674278653E+03  0.12425733289E+03 -0.47859831137E+03  0.50806014076E+03  0.00000000000E+00 0.  1.
          3    1    3    3  501    0  0.10186997096E+03 -0.12380491036E+03 -0.48835295081E+03  0.51399781262E+03  0.00000000000E+00 0.  1.
         21    1    1    2  502  501  0.14872815566E+02 -0.45242252868E+00  0.45769247486E+01  0.15567709182E+02  0.00000000000E+00 0.  1.
<mgrwt>
<rscale>  1 0.30000000E+03</rscale>
<asrwt>0</asrwt>
<pdfrwt beam="1">  1        1 0.13682088E+00 0.30000000E+03</pdfrwt>
<pdfrwt beam="2">0</pdfrwt>
<totfact> 0.21028261E+01</totfact>
</mgrwt>
</event>
<event>
 6    1  0.1940992E-004  0.3000000E+03  0.7818608E-02  0.1093470E+00
          1   -1    0    0  502    0  0.00000000000E+00  0.00000000000E+00  0.34010902799E+02  0.34010902799E+02  0.00000000000E+00 0.  1.
         13   -1    0    0    0    0 -0.00000000000E+00 -0.00000000000E+00 -0.10000000000E+04  0.10000000000E+04  0.00000000000E+00 0.  1.
    9000005    2    1    2  501    0 -0.41171080614E+02 -0.61204334205E+01 -0.91244461111E+03  0.96619107107E+03  0.31501984049E+03 0.  0.
         13    1    3    3    0    0  0.13000527220E+03  0.37868574783E+02 -0.30831092333E+03  0.33673583890E+03  0.00000000000E+00 0.  1.
          1    1    3    3  501    0 -0.17117635281E+03 -0.43989008203E+02 -0.60413368777E+03  0.62945523217E+03  0.00000000000E+00 0.  1.
         21    1    1    2  502  501  0.41171080614E+02  0.61204334205E+01 -0.53544486094E+02  0.67819831726E+02  0.00000000000E+00 0. -1.
<mgrwt>
<rscale>  1 0.30000000E+03</rscale>
<asrwt>0</asrwt>
<pdfrwt beam="1">  1        1 0.12367627E+00 0.30000000E+03</pdfrwt>
<pdfrwt beam="2">0</pdfrwt>
<totfact> 0.24790235E+01</totfact>
</mgrwt>
</event>
<event>
 6    1  0.1940992E-004  0.3000000E+03  0.7818608E-02  0.1093470E+00
          1   -1    0    0  502    0  0.00000000000E+00  0.00000000000E+00  0.55298814114E+02  0.55298814114E+02  0.00000000000E+00 0.  1.
         13   -1    0    0    0    0 -0.00000000000E+00 -0.00000000000E+00 -0.10000000000E+04  0.10000000000E+04  0.00000000000E+00 0.  1.
    9000005    2    1    2  501    0 -0.49099816113E+02  0.56366380022E+01 -0.94678790571E+03  0.10058324818E+04  0.33593017051E+03 0.  0.
         13    1    3    3    0    0 -0.14178001171E+03  0.18117523875E+01 -0.16078494947E+03  0.21437503153E+03  0.00000000000E+00 0.  1.
          3    1    3    3  501    0  0.92680195598E+02  0.38248856148E+01 -0.78600295625E+03  0.79145745030E+03  0.00000000000E+00 0.  1.
         21    1    1    2  502  501  0.49099816113E+02 -0.56366380022E+01  0.20867198288E+01  0.49466332287E+02  0.00000000000E+00 0.  1.
<mgrwt>
<rscale>  1 0.30000000E+03</rscale>
<asrwt>0</asrwt>
<pdfrwt beam="1">  1        1 0.20108702E+00 0.30000000E+03</pdfrwt>
<pdfrwt beam="2">0</pdfrwt>
<totfact> 0.10122296E+01</totfact>
</mgrwt>
</event>
<event>
 6    1  0.1940992E-004  0.3000000E+03  0.7818608E-02  0.1093470E+00
          1   -1    0    0  502    0  0.00000000000E+00  0.00000000000E+00  0.26217021835E+02  0.26217021835E+02  0.00000000000E+00 0.  1.
         13   -1    0    0    0    0 -0.00000000000E+00 -0.00000000000E+00 -0.10000000000E+04  0.10000000000E+04  0.00000000000E+00 0.  1.
    9000005    2    1    2  501    0 -0.26890942681E+00  0.13155676552E+02 -0.94279585301E+03  0.99255181630E+03  0.31003539066E+03 0.  0.
         13    1    3    3    0    0 -0.97369116363E+02 -0.58071940451E+02 -0.78956752694E+03  0.79766532749E+03  0.00000000000E+00 0.  1.
          3    1    3    3  501    0  0.97100206937E+02  0.71227617003E+02 -0.15322832607E+03  0.19488648881E+03  0.00000000000E+00 0.  1.
         21    1    1    2  502  501  0.26890942681E+00 -0.13155676552E+02 -0.30987125160E+02  0.33665205532E+02  0.00000000000E+00 0. -1.
<mgrwt>
<rscale>  1 0.30000000E+03</rscale>
<asrwt>0</asrwt>
<pdfrwt beam="1">  1        1 0.95334826E-01 0.30000000E+03</pdfrwt>
<pdfrwt beam="2">0</pdfrwt>
<totfact> 0.36684708E+01</totfact>
</mgrwt>
</event>
<event>
 6    1  0.1940992E-004  0.3000000E+03  0.7818608E-02  0.1093470E+00
          1   -1    0    0  502    0  0.00000000000E+00  0.00000000000E+00  0.35121498514E+02  0.35121498514E+02  0.00000000000E+00 0.  1.
         13   -1    0    0    0    0 -0.00000000000E+00 -0.00000000000E+00 -0.10000000000E+04  0.10000000000E+04  0.00000000000E+00 0.  1.
    9000005    2    1    2  501    0  0.25914512745E+02  0.12510505993E+02 -0.91871860179E+03  0.98072654405E+03  0.34198334784E+03 0.  0.
         13    1    3    3    0    0  0.75302295192E+01  0.17387057272E+03 -0.57137099007E+03  0.59728760970E+03  0.00000000000E+00 0.  1.
          1    1    3    3  501    0  0.18384283226E+02 -0.16136006673E+03 -0.34734761172E+03  0.38343893435E+03  0.00000000000E+00 0.  1.
         21    1    1    2  502  501 -0.25914512745E+02 -0.12510505993E+02 -0.46159899695E+02  0.54394954462E+02  0.00000000000E+00 0.  1.
<mgrwt>
<rscale>  1 0.30000000E+03</rscale>
<asrwt>0</asrwt>
<pdfrwt beam="1">  1        1 0.12771481E+00 0.30000000E+03</pdfrwt>
<pdfrwt beam="2">0</pdfrwt>
<totfact> 0.23547632E+01</totfact>
</mgrwt>
</event>
<event>
 6    1  0.1940992E-004  0.3000000E+03  0.7818608E-02  0.1093470E+00
          1   -1    0    0  502    0  0.00000000000E+00  0.00000000000E+00  0.53704670908E+02  0.53704670908E+02  0.00000000000E+00 0.  1.
         13   -1    0    0    0    0 -0.00000000000E+00 -0.00000000000E+00 -0.10000000000E+04  0.10000000000E+04  0.00000000000E+00 0.  1.
    9000005    2    1    2  501    0 -0.96690940628E+02 -0.38109056759E+02 -0.82251386691E+03  0.89207766640E+03  0.32935097301E+03 0.  0.
         13    1    3    3    0    0 -0.21434602258E+03 -0.55619006070E+02 -0.60351455422E+03  0.64285885573E+03  0.00000000000E+00 0.  1.
          1    1    3    3  501    0  0.11765508195E+03  0.17509949311E+02 -0.21899931268E+03  0.24921881066E+03  0.00000000000E+00 0.  1.
         21    1    1    2  502  501  0.96690940628E+02  0.38109056759E+02 -0.12378146219E+03  0.16162700451E+03  0.00000000000E+00 0.  1.
<mgrwt>
<rscale>  1 0.30000000E+03</rscale>
<asrwt>0</asrwt>
<pdfrwt beam="1">  1        1 0.19529012E+00 0.30000000E+03</pdfrwt>
<pdfrwt beam="2">0</pdfrwt>
<totfact> 0.10786247E+01</totfact>
</mgrwt>
</event>
<event>
 6    1  0.1940992E-004  0.3000000E+03  0.7818608E-02  0.1093470E+00
          1   -1    0    0  502    0  0.00000000000E+00  0.00000000000E+00  0.71259943633E+02  0.71259943633E+02  0.00000000000E+00 0.  1.
         13   -1    0    0    0    0 -0.00000000000E+00 -0.00000000000E+00 -0.10000000000E+04  0.10000000000E+04  0.00000000000E+00 0.  1.
    9000005    2    1    2  501    0  0.64653881140E+02  0.54029031571E+02 -0.92963422773E+03  0.98699808903E+03  0.32069638256E+03 0.  0.
         13    1    3    3    0    0  0.70071448943E+02 -0.11306078059E+03 -0.62993040352E+03  0.64382067484E+03  0.00000000000E+00 0.  1.
          1    1    3    3  501    0 -0.54175678035E+01  0.16708981216E+03 -0.29970382420E+03  0.34317741419E+03  0.00000000000E+00 0.  1.
         21    1    1    2  502  501 -0.64653881140E+02 -0.54029031571E+02  0.89417136023E+00  0.84261854605E+02  0.00000000000E+00 0. -1.
<mgrwt>
<rscale>  1 0.30000000E+03</rscale>
<asrwt>0</asrwt>
<pdfrwt beam="1">  1        1 0.25912761E+00 0.30000000E+03</pdfrwt>
<pdfrwt beam="2">0</pdfrwt>
<totfact> 0.54090428E+00</totfact>
</mgrwt>
</event>
<event>
 6    1  0.1940992E-004  0.3000000E+03  0.7818608E-02  0.1093470E+00
          1   -1    0    0  502    0  0.00000000000E+00  0.00000000000E+00  0.38384418984E+02  0.38384418984E+02  0.00000000000E+00 0.  1.
         13   -1    0    0    0    0 -0.00000000000E+00 -0.00000000000E+00 -0.10000000000E+04  0.10000000000E+04  0.00000000000E+00 0.  1.
    9000005    2    1    2  501    0  0.24579303756E+02 -0.22275675448E+01 -0.96085212002E+03  0.10136925761E+04  0.32206635675E+03 0.  0.
         13    1    3    3    0    0  0.16931307194E+03 -0.10457964310E+01 -0.63414693048E+03  0.65636143965E+03  0.00000000000E+00 0.  1.
          1    1    3    3  501    0 -0.14473376819E+03 -0.11817711138E+01 -0.32670518953E+03  0.35733113649E+03  0.00000000000E+00 0.  1.
         21    1    1    2  502  501 -0.24579303756E+02  0.22275675448E+01 -0.76346100057E+00  0.24691842843E+02  0.00000000000E+00 0.  1.
<mgrwt>
<rscale>  1 0.30000000E+03</rscale>
<asrwt>0</asrwt>
<pdfrwt beam="1">  1        1 0.13958000E+00 0.30000000E+03</pdfrwt>
<pdfrwt beam="2">0</pdfrwt>
<totfact> 0.20335164E+01</totfact>
</mgrwt>
</event>
<event>
 6    1  0.1940992E-004  0.3000000E+03  0.7818608E-02  0.1093470E+00
          1   -1    0    0  502    0  0.00000000000E+00  0.00000000000E+00  0.21549882411E+02  0.21549882411E+02  0.00000000000E+00 0.  1.
         13   -1    0    0    0    0 -0.00000000000E+00 -0.00000000000E+00 -0.10000000000E+04  0.10000000000E+04  0.00000000000E+00 0.  1.
    9000005    2    1    2  501    0  0.95488481121E+01  0.71305362330E+01 -0.95090837186E+03  0.99154033718E+03  0.28068395667E+03 0.  0.
         13    1    3    3    0    0 -0.19913109900E+02  0.87108323258E+02 -0.91418550870E+02  0.12783482847E+03  0.00000000000E+00 0.  1.
          3    1    3    3  501    0  0.29461958012E+02 -0.79977787025E+02 -0.85948982099E+03  0.86370550871E+03  0.00000000000E+00 0.  1.
         21    1    1    2  502  501 -0.95488481121E+01 -0.71305362330E+01 -0.27541745729E+02  0.30009545232E+02  0.00000000000E+00 0. -1.
<mgrwt>
<rscale>  1 0.30000000E+03</rscale>
<asrwt>0</asrwt>
<pdfrwt beam="1">  1        1 0.78363374E-01 0.30000000E+03</pdfrwt>
<pdfrwt beam="2">0</pdfrwt>
<totfact> 0.48324934E+01</totfact>
</mgrwt>
</event>
<event>
 6    1  0.1940992E-004  0.3000000E+03  0.7818608E-02  0.1093470E+00
          1   -1    0    0  502    0  0.00000000000E+00  0.00000000000E+00  0.29282038249E+02  0.29282038249E+02  0.00000000000E+00 0.  1.
         13   -1    0    0    0    0 -0.00000000000E+00 -0.00000000000E+00 -0.10000000000E+04  0.10000000000E+04  0.00000000000E+00 0.  1.
    9000005    2    1    2  501    0  0.18416449093E+02 -0.76751551972E+01 -0.96550265596E+03  0.10086598895E+04  0.29120666272E+03 0.  0.
         13    1    3    3    0    0 -0.13780030775E+02  0.12477495891E+03 -0.68948859353E+03  0.70082323037E+03  0.00000000000E+00 0.  1.
          1    1    3    3  501    0  0.32196479869E+02 -0.13245011411E+03 -0.27601406243E+03  0.30783665913E+03  0.00000000000E+00 0.  1.
         21    1    1    2  502  501 -0.18416449093E+02  0.76751551972E+01 -0.52153057888E+01  0.20622148748E+02  0.00000000000E+00 0. -1.
<mgrwt>
<rscale>  1 0.30000000E+03</rscale>
<asrwt>0</asrwt>
<pdfrwt beam="1">  1        1 0.10648036E+00 0.30000000E+03</pdfrwt>
<pdfrwt beam="2">0</pdfrwt>
<totfact> 0.31195698E+01</totfact>
</mgrwt>
</event>
<event>
 6    1  0.1940992E-004  0.3000000E+03  0.7818608E-02  0.1093470E+00
          1   -1    0    0  502    0  0.00000000000E+00  0.00000000000E+00  0.54639877790E+02  0.54639877790E+02  0.00000000000E+00 0.  1.
         13   -1    0    0    0    0 -0.00000000000E+00 -0.00000000000E+00 -0.10000000000E+04  0.10000000000E+04  0.00000000000E+00 0.  1.
    9000005    2    1    2  501    0 -0.75740881570E+02 -0.13358346658E+02 -0.91410939900E+03  0.97162340793E+03  0.32022012262E+03 0.  0.
         13    1    3    3    0    0 -0.10093343185E+03  0.14034171276E+03 -0.44897193540E+03  0.48110201910E+03  0.00000000000E+00 0.  1.
          1    1    3    3  501    0  0.25192550282E+02 -0.15370005942E+03 -0.46513746361E+03  0.49052138884E+03  0.00000000000E+00 0.  1.
         21    1    1    2  502  501  0.75740881570E+02  0.13358346658E+02 -0.31250723207E+02  0.83016469856E+02  0.00000000000E+00 0. -1.
<mgrwt>
<rscale>  1 0.30000000E+03</rscale>
<asrwt>0</asrwt>
<pdfrwt beam="1">  1        1 0.19869088E+00 0.30000000E+03</pdfrwt>
<pdfrwt beam="2">0</pdfrwt>
<totfact> 0.10391312E+01</totfact>
</mgrwt>
</event>
<event>
 6    1  0.1940992E-004  0.3000000E+03  0.7818608E-02  0.1093470E+00
          1   -1    0    0  502    0  0.00000000000E+00  0.00000000000E+00  0.57528131289E+02  0.57528131289E+02  0.00000000000E+00 0.  1.
         13   -1    0    0    0    0 -0.00000000000E+00 -0.00000000000E+00 -0.10000000000E+04  0.10000000000E+04  0.00000000000E+00 0.  1.
    9000005    2    1    2  501    0 -0.93830296196E+01  0.48422972522E+02 -0.89591336262E+03  0.98970099806E+03  0.41762960470E+03 0.  0.
         13    1    3    3    0    0  0.16832614413E+03  0.70799110523E+02 -0.70354415278E+03  0.72685664320E+03  0.00000000000E+00 0.  1.
          3    1    3    3  501    0 -0.17770917375E+03 -0.22376138001E+02 -0.19236920984E+03  0.26284435486E+03  0.00000000000E+00 0.  1.
         21    1    1    2  502  501  0.93830296196E+01 -0.48422972522E+02 -0.46558506090E+02  0.67827133229E+02  0.00000000000E+00 0. -1.
<mgrwt>
<rscale>  1 0.30000000E+03</rscale>
<asrwt>0</asrwt>
<pdfrwt beam="1">  1        1 0.20919365E+00 0.30000000E+03</pdfrwt>
<pdfrwt beam="2">0</pdfrwt>
<totfact> 0.92660636E+00</totfact>
</mgrwt>
</event>
<event>
 6    1  0.1940992E-004  0.3000000E+03  0.7818608E-02  0.1093470E+00
          1   -1    0    0  502    0  0.00000000000E+00  0.00000000000E+00  0.29212741683E+02  0.29212741683E+02  0.00000000000E+00 0.  1.
         13   -1    0    0    0    0 -0.00000000000E+00 -0.00000000000E+00 -0.10000000000E+04  0.10000000000E+04  0.00000000000E+00 0.  1.
    9000005    2    1    2  501    0 -0.15484130574E+02  0.28687344608E+01 -0.95881705908E+03  0.10094321045E+04  0.31523805751E+03 0.  0.
         13    1    3    3    0    0 -0.11958119511E+03  0.11101789961E+03 -0.43764686902E+03  0.46707538816E+03  0.00000000000E+00 0.  1.
          1    1    3    3  501    0  0.10409706454E+03 -0.10814916515E+03 -0.52117019006E+03  0.54235671635E+03  0.00000000000E+00 0.  1.
         21    1    1    2  502  501  0.15484130574E+02 -0.28687344608E+01 -0.11970199237E+02  0.19780637169E+02  0.00000000000E+00 0.  1.
<mgrwt>
<rscale>  1 0.30000000E+03</rscale>
<asrwt>0</asrwt>
<pdfrwt beam="1">  1        1 0.10622838E+00 0.30000000E+03</pdfrwt>
<pdfrwt beam="2">0</pdfrwt>
<totfact> 0.31306149E+01</totfact>
</mgrwt>
</event>
<event>
 6    1  0.1940992E-004  0.3000000E+03  0.7818608E-02  0.1093470E+00
          3   -1    0    0  502    0  0.00000000000E+00  0.00000000000E+00  0.30300415353E+02  0.30300415353E+02  0.00000000000E+00 0.  1.
         13   -1    0    0    0    0 -0.00000000000E+00 -0.00000000000E+00 -0.10000000000E+04  0.10000000000E+04  0.00000000000E+00 0.  1.
    9000005    2    1    2  501    0 -0.10942912203E+02 -0.12354658570E+02 -0.95250534128E+03  0.10064671000E+04  0.32471096885E+03 0.  0.
         13    1    3    3    0    0 -0.15507723333E+03 -0.68207923045E+02 -0.53993057218E+03  0.56588540522E+03  0.00000000000E+00 0.  1.
          1    1    3    3  501    0  0.14413432112E+03  0.55853264476E+02 -0.41257476910E+03  0.44058169478E+03  0.00000000000E+00 0.  1.
         21    1    1    2  502  501  0.10942912203E+02  0.12354658570E+02 -0.17194243364E+02  0.23833315353E+02  0.00000000000E+00 0.  1.
<mgrwt>
<rscale>  1 0.30000000E+03</rscale>
<asrwt>0</asrwt>
<pdfrwt beam="1">  1        3 0.11018356E+00 0.30000000E+03</pdfrwt>
<pdfrwt beam="2">0</pdfrwt>
<totfact> 0.29991358E+00</totfact>
</mgrwt>
</event>
<event>
 6    1  0.1940992E-004  0.3000000E+03  0.7818608E-02  0.1093470E+00
          1   -1    0    0  502    0  0.00000000000E+00  0.00000000000E+00  0.37463801671E+02  0.37463801671E+02  0.00000000000E+00 0.  1.
         13   -1    0    0    0    0 -0.00000000000E+00 -0.00000000000E+00 -0.10000000000E+04  0.10000000000E+04  0.00000000000E+00 0.  1.
    9000005    2    1    2  501    0  0.73227267408E+01  0.16267759493E+02 -0.96595508002E+03  0.10192992461E+04  0.32493610792E+03 0.  0.
         13    1    3    3    0    0 -0.57493306007E+02 -0.63448640723E+02 -0.53251629065E+02  0.10083127612E+03  0.00000000000E+00 0.  1.
          1    1    3    3  501    0  0.64816032748E+02  0.79716400216E+02 -0.91270345095E+03  0.91846797002E+03  0.00000000000E+00 0.  1.
         21    1    1    2  502  501 -0.73227267408E+01 -0.16267759493E+02  0.34188816901E+01  0.18164555537E+02  0.00000000000E+00 0.  1.
<mgrwt>
<rscale>  1 0.30000000E+03</rscale>
<asrwt>0</asrwt>
<pdfrwt beam="1">  1        1 0.13623229E+00 0.30000000E+03</pdfrwt>
<pdfrwt beam="2">0</pdfrwt>
<totfact> 0.21180021E+01</totfact>
</mgrwt>
</event>
<event>
 6    1  0.1940992E-004  0.3000000E+03  0.7818608E-02  0.1093470E+00
          1   -1    0    0  502    0  0.00000000000E+00  0.00000000000E+00  0.34242576358E+02  0.34242576358E+02  0.00000000000E+00 0.  1.
         13   -1    0    0    0    0 -0.00000000000E+00 -0.00000000000E+00 -0.10000000000E+04  0.10000000000E+04  0.00000000000E+00 0.  1.
    9000005    2    1    2  501    0  0.17886217785E+02  0.13847685517E+01 -0.96820807430E+03  0.10161362222E+04  0.30787028542E+03 0.  0.
         13    1    3    3    0    0  0.14988783687E+03  0.59722940464E+02 -0.57790385293E+03  0.60000504705E+03  0.00000000000E+00 0.  1.
          3    1    3    3  501    0 -0.13200161909E+03 -0.58338171912E+02 -0.39030422137E+03  0.41613117519E+03  0.00000000000E+00 0.  1.
         21    1    1    2  502  501 -0.17886217785E+02 -0.13847685517E+01  0.24506506589E+01  0.18106354113E+02  0.00000000000E+00 0.  1.
<mgrwt>
<rscale>  1 0.30000000E+03</rscale>
<asrwt>0</asrwt>
<pdfrwt beam="1">  1        1 0.12451872E+00 0.30000000E+03</pdfrwt>
<pdfrwt beam="2">0</pdfrwt>
<totfact> 0.24524260E+01</totfact>
</mgrwt>
</event>
<event>
 6    1  0.1940992E-004  0.3000000E+03  0.7818608E-02  0.1093470E+00
          3   -1    0    0  502    0  0.00000000000E+00  0.00000000000E+00  0.35743304909E+02  0.35743304909E+02  0.00000000000E+00 0.  1.
         13   -1    0    0    0    0 -0.00000000000E+00 -0.00000000000E+00 -0.10000000000E+04  0.10000000000E+04  0.00000000000E+00 0.  1.
    9000005    2    1    2  501    0  0.14734756195E+02 -0.23464989601E+02 -0.96399491311E+03  0.10080343297E+04  0.29339273777E+03 0.  0.
         13    1    3    3    0    0 -0.15725852512E+02 -0.12626543346E+03 -0.20340671374E+03  0.23992614138E+03  0.00000000000E+00 0.  1.
          1    1    3    3  501    0  0.30460608706E+02  0.10280044386E+03 -0.76058819937E+03  0.76810818832E+03  0.00000000000E+00 0.  1.
         21    1    1    2  502  501 -0.14734756195E+02  0.23464989601E+02 -0.26178197688E+00  0.27708975205E+02  0.00000000000E+00 0.  1.
<mgrwt>
<rscale>  1 0.30000000E+03</rscale>
<asrwt>0</asrwt>
<pdfrwt beam="1">  1        3 0.12997593E+00 0.30000000E+03</pdfrwt>
<pdfrwt beam="2">0</pdfrwt>
<totfact> 0.17705529E+00</totfact>
</mgrwt>
</event>
<event>
 6    1  0.1940992E-004  0.3000000E+03  0.7818608E-02  0.1093470E+00
          1   -1    0    0  502    0  0.00000000000E+00  0.00000000000E+00  0.46656944922E+02  0.46656944922E+02  0.00000000000E+00 0.  1.
         13   -1    0    0    0    0 -0.00000000000E+00 -0.00000000000E+00 -0.10000000000E+04  0.10000000000E+04  0.00000000000E+00 0.  1.
    9000005    2    1    2  501    0 -0.65433748117E+00  0.34245307322E+02 -0.94682837483E+03  0.10117913417E+04  0.35505573995E+03 0.  0.
         13    1    3    3    0    0 -0.96980889694E+02  0.15804143697E+03 -0.36785831759E+03  0.41194918447E+03  0.00000000000E+00 0.  1.
          1    1    3    3  501    0  0.96326552213E+02 -0.12379612965E+03 -0.57897005724E+03  0.59984215720E+03  0.00000000000E+00 0.  1.
         21    1    1    2  502  501  0.65433748117E+00 -0.34245307322E+02 -0.65146802476E+01  0.34865603248E+02  0.00000000000E+00 0. -1.
<mgrwt>
<rscale>  1 0.30000000E+03</rscale>
<asrwt>0</asrwt>
<pdfrwt beam="1">  1        1 0.16966198E+00 0.30000000E+03</pdfrwt>
<pdfrwt beam="2">0</pdfrwt>
<totfact> 0.14341659E+01</totfact>
</mgrwt>
</event>
<event>
 6    1  0.1940992E-004  0.3000000E+03  0.7818608E-02  0.1093470E+00
          1   -1    0    0  502    0  0.00000000000E+00  0.00000000000E+00  0.29996736594E+02  0.29996736594E+02  0.00000000000E+00 0.  1.
         13   -1    0    0    0    0 -0.00000000000E+00 -0.00000000000E+00 -0.10000000000E+04  0.10000000000E+04  0.00000000000E+00 0.  1.
    9000005    2    1    2  501    0  0.17121687378E+02  0.14203953109E+02 -0.88887924158E+03  0.94587770558E+03  0.32261962638E+03 0.  0.
         13    1    3    3    0    0  0.13821004023E+03 -0.83194057047E+02 -0.54794694358E+03  0.57119971930E+03  0.00000000000E+00 0.  1.
          3    1    3    3  501    0 -0.12108835285E+03  0.97398010156E+02 -0.34093229800E+03  0.37467798628E+03  0.00000000000E+00 0.  1.
         21    1    1    2  502  501 -0.17121687378E+02 -0.14203953109E+02 -0.81124021821E+02  0.84119031016E+02  0.00000000000E+00 0.  1.
<mgrwt>
<rscale>  1 0.30000000E+03</rscale>
<asrwt>0</asrwt>
<pdfrwt beam="1">  1        1 0.10907927E+00 0.30000000E+03</pdfrwt>
<pdfrwt beam="2">0</pdfrwt>
<totfact> 0.30088460E+01</totfact>
</mgrwt>
</event>
<event>
 6    1  0.1940992E-004  0.3000000E+03  0.7818608E-02  0.1093470E+00
          1   -1    0    0  502    0  0.00000000000E+00  0.00000000000E+00  0.29954094748E+02  0.29954094748E+02  0.00000000000E+00 0.  1.
         13   -1    0    0    0    0 -0.00000000000E+00 -0.00000000000E+00 -0.10000000000E+04  0.10000000000E+04  0.00000000000E+00 0.  1.
    9000005    2    1    2  501    0 -0.94936571345E+00  0.10048157819E+02 -0.95630136865E+03  0.10129018498E+04  0.33370043887E+03 0.  0.
         13    1    3    3    0    0  0.10470433926E+03 -0.31663837751E+02 -0.85103248128E+03  0.85803372980E+03  0.00000000000E+00 0.  1.
          1    1    3    3  501    0 -0.10565370497E+03  0.41711995571E+02 -0.10526888737E+03  0.15486812002E+03  0.00000000000E+00 0.  1.
         21    1    1    2  502  501  0.94936571345E+00 -0.10048157819E+02 -0.13744536600E+02  0.17052244930E+02  0.00000000000E+00 0.  1.
<mgrwt>
<rscale>  1 0.30000000E+03</rscale>
<asrwt>0</asrwt>
<pdfrwt beam="1">  1        1 0.10892421E+00 0.30000000E+03</pdfrwt>
<pdfrwt beam="2">0</pdfrwt>
<totfact> 0.30152933E+01</totfact>
</mgrwt>
</event>
<event>
 6    1  0.1940992E-004  0.3000000E+03  0.7818608E-02  0.1093470E+00
          1   -1    0    0  502    0  0.00000000000E+00  0.00000000000E+00  0.28750380487E+02  0.28750380487E+02  0.00000000000E+00 0.  1.
         13   -1    0    0    0    0 -0.00000000000E+00 -0.00000000000E+00 -0.10000000000E+04  0.10000000000E+04  0.00000000000E+00 0.  1.
    9000005    2    1    2  501    0 -0.91724866835E+01  0.25965513148E+02 -0.90669632776E+03  0.95856868871E+03  0.30983440385E+03 0.  0.
         13    1    3    3    0    0 -0.29516437660E+02 -0.54562331208E+02 -0.86203593247E+03  0.86426513116E+03  0.00000000000E+00 0.  1.
          1    1    3    3  501    0  0.20343950977E+02  0.80527844356E+02 -0.44660395296E+02  0.94303557546E+02  0.00000000000E+00 0.  1.
         21    1    1    2  502  501  0.91724866835E+01 -0.25965513148E+02 -0.64553291752E+02  0.70181691779E+02  0.00000000000E+00 0. -1.
<mgrwt>
<rscale>  1 0.30000000E+03</rscale>
<asrwt>0</asrwt>
<pdfrwt beam="1">  1        1 0.10454706E+00 0.30000000E+03</pdfrwt>
<pdfrwt beam="2">0</pdfrwt>
<totfact> 0.32057752E+01</totfact>
</mgrwt>
</event>
<event>
 6    1  0.1940992E-004  0.3000000E+03  0.7818608E-02  0.1093470E+00
          1   -1    0    0  502    0  0.00000000000E+00  0.00000000000E+00  0.36472705416E+02  0.36472705416E+02  0.00000000000E+00 0.  1.
         13   -1    0    0    0    0 -0.00000000000E+00 -0.00000000000E+00 -0.10000000000E+04  0.10000000000E+04  0.00000000000E+00 0.  1.
    9000005    2    1    2  501    0 -0.30471533582E+02 -0.31697056920E+02 -0.82508798703E+03  0.89121892869E+03  0.33401762640E+03 0.  0.
         13    1    3    3    0    0  0.13532156618E+03  0.29211192593E+02 -0.52560147535E+03  0.54352748867E+03  0.00000000000E+00 0.  1.
          1    1    3    3  501    0 -0.16579309977E+03 -0.60908249513E+02 -0.29948651167E+03  0.34769144002E+03  0.00000000000E+00 0.  1.
         21    1    1    2  502  501  0.30471533582E+02  0.31697056920E+02 -0.13843930756E+03  0.14525377673E+03  0.00000000000E+00 0.  1.
<mgrwt>
<rscale>  1 0.30000000E+03</rscale>
<asrwt>0</asrwt>
<pdfrwt beam="1">  1        1 0.13262830E+00 0.30000000E+03</pdfrwt>
<pdfrwt beam="2">0</pdfrwt>
<totfact> 0.22141788E+01</totfact>
</mgrwt>
</event>
<event>
 6    1  0.1940992E-004  0.3000000E+03  0.7818608E-02  0.1093470E+00
          3   -1    0    0  502    0  0.00000000000E+00  0.00000000000E+00  0.28114889888E+02  0.28114889888E+02  0.00000000000E+00 0.  1.
         13   -1    0    0    0    0 -0.00000000000E+00 -0.00000000000E+00 -0.10000000000E+04  0.10000000000E+04  0.00000000000E+00 0.  1.
    9000005    2    1    2  501    0  0.34332722174E+01 -0.11355845230E+02 -0.93825671029E+03  0.99245522284E+03  0.32326610149E+03 0.  0.
         13    1    3    3    0    0  0.71949203232E+02 -0.59493489108E+02 -0.89184346853E+03  0.89671675319E+03  0.00000000000E+00 0.  1.
          1    1    3    3  501    0 -0.68515931015E+02  0.48137643878E+02 -0.46413241755E+02  0.95738469652E+02  0.00000000000E+00 0.  1.
         21    1    1    2  502  501 -0.34332722174E+01  0.11355845230E+02 -0.33628399826E+02  0.35659667047E+02  0.00000000000E+00 0.  1.
<mgrwt>
<rscale>  1 0.30000000E+03</rscale>
<asrwt>0</asrwt>
<pdfrwt beam="1">  1        3 0.10223618E+00 0.30000000E+03</pdfrwt>
<pdfrwt beam="2">0</pdfrwt>
<totfact> 0.36939307E+00</totfact>
</mgrwt>
</event>
<event>
 6    1  0.1940992E-004  0.3000000E+03  0.7818608E-02  0.1093470E+00
          1   -1    0    0  502    0  0.00000000000E+00  0.00000000000E+00  0.30197676573E+02  0.30197676573E+02  0.00000000000E+00 0.  1.
         13   -1    0    0    0    0 -0.00000000000E+00 -0.00000000000E+00 -0.10000000000E+04  0.10000000000E+04  0.00000000000E+00 0.  1.
    9000005    2    1    2  501    0 -0.89891836356E+01 -0.20791374541E+02 -0.84211699828E+03  0.90051873095E+03  0.31821354361E+03 0.  0.
         13    1    3    3    0    0  0.68179109033E+02  0.10688445617E+03 -0.17013484546E+03  0.21217573735E+03  0.00000000000E+00 0.  1.
          3    1    3    3  501    0 -0.77168292669E+02 -0.12767583071E+03 -0.67198215282E+03  0.68834299361E+03  0.00000000000E+00 0.  1.
         21    1    1    2  502  501  0.89891836356E+01  0.20791374541E+02 -0.12768532515E+03  0.12967894562E+03  0.00000000000E+00 0.  1.
<mgrwt>
<rscale>  1 0.30000000E+03</rscale>
<asrwt>0</asrwt>
<pdfrwt beam="1">  1        1 0.10980996E+00 0.30000000E+03</pdfrwt>
<pdfrwt beam="2">0</pdfrwt>
<totfact> 0.29787271E+01</totfact>
</mgrwt>
</event>
<event>
 6    1  0.1940992E-004  0.3000000E+03  0.7818608E-02  0.1093470E+00
          1   -1    0    0  502    0  0.00000000000E+00  0.00000000000E+00  0.32617558351E+02  0.32617558351E+02  0.00000000000E+00 0.  1.
         13   -1    0    0    0    0 -0.00000000000E+00 -0.00000000000E+00 -0.10000000000E+04  0.10000000000E+04  0.00000000000E+00 0.  1.
    9000005    2    1    2  501    0  0.18402486176E+02 -0.40972098430E+01 -0.94073216464E+03  0.99997286674E+03  0.33854584622E+03 0.  0.
         13    1    3    3    0    0  0.76283720216E+02 -0.37345527906E+02 -0.35128534637E+02  0.91912503884E+02  0.00000000000E+00 0.  1.
          1    1    3    3  501    0 -0.57881234040E+02  0.33248318063E+02 -0.90560363000E+03  0.90806036285E+03  0.00000000000E+00 0.  1.
         21    1    1    2  502  501 -0.18402486176E+02  0.40972098430E+01 -0.26650277008E+02  0.32644691613E+02  0.00000000000E+00 0.  1.
<mgrwt>
<rscale>  1 0.30000000E+03</rscale>
<asrwt>0</asrwt>
<pdfrwt beam="1">  1        1 0.11860955E+00 0.30000000E+03</pdfrwt>
<pdfrwt beam="2">0</pdfrwt>
<totfact> 0.26472407E+01</totfact>
</mgrwt>
</event>
<event>
 6    1  0.1940992E-004  0.3000000E+03  0.7818608E-02  0.1093470E+00
          1   -1    0    0  502    0  0.00000000000E+00  0.00000000000E+00  0.28959391400E+02  0.28959391400E+02  0.00000000000E+00 0.  1.
         13   -1    0    0    0    0 -0.00000000000E+00 -0.00000000000E+00 -0.10000000000E+04  0.10000000000E+04  0.00000000000E+00 0.  1.
    9000005    2    1    2  501    0  0.23248955033E+01  0.14886545005E+02 -0.94760110141E+03  0.10010949901E+04  0.32251560814E+03 0.  0.
         13    1    3    3    0    0  0.15296220936E+03  0.54639366050E+01 -0.64537673814E+03  0.66327854347E+03  0.00000000000E+00 0.  1.
          3    1    3    3  501    0 -0.15063731385E+03  0.94226083998E+01 -0.30222436327E+03  0.33781644665E+03  0.00000000000E+00 0.  1.
         21    1    1    2  502  501 -0.23248955033E+01 -0.14886545005E+02 -0.23439507188E+02  0.27864401276E+02  0.00000000000E+00 0. -1.
<mgrwt>
<rscale>  1 0.30000000E+03</rscale>
<asrwt>0</asrwt>
<pdfrwt beam="1">  1        1 0.10530710E+00 0.30000000E+03</pdfrwt>
<pdfrwt beam="2">0</pdfrwt>
<totfact> 0.31714795E+01</totfact>
</mgrwt>
</event>
<event>
 6    1  0.1940992E-004  0.3000000E+03  0.7818608E-02  0.1093470E+00
          1   -1    0    0  502    0  0.00000000000E+00  0.00000000000E+00  0.27862688393E+02  0.27862688393E+02  0.00000000000E+00 0.  1.
         13   -1    0    0    0    0 -0.00000000000E+00 -0.00000000000E+00 -0.10000000000E+04  0.10000000000E+04  0.00000000000E+00 0.  1.
    9000005    2    1    2  501    0  0.78745988681E+01 -0.73881884716E+01 -0.97176659878E+03  0.10170584270E+04  0.29993487090E+03 0.  0.
         13    1    3    3    0    0  0.14444133651E+03  0.25281703135E+02 -0.64392298996E+03  0.66040841999E+03  0.00000000000E+00 0.  1.
          1    1    3    3  501    0 -0.13656673764E+03 -0.32669891607E+02 -0.32784360883E+03  0.35665000701E+03  0.00000000000E+00 0.  1.
         21    1    1    2  502  501 -0.78745988681E+01  0.73881884716E+01 -0.37071282306E+00  0.10804261392E+02  0.00000000000E+00 0. -1.
<mgrwt>
<rscale>  1 0.30000000E+03</rscale>
<asrwt>0</asrwt>
<pdfrwt beam="1">  1        1 0.10131908E+00 0.30000000E+03</pdfrwt>
<pdfrwt beam="2">0</pdfrwt>
<totfact> 0.33576084E+01</totfact>
</mgrwt>
</event>
<event>
 6    1  0.1940992E-004  0.3000000E+03  0.7818608E-02  0.1093470E+00
          1   -1    0    0  502    0  0.00000000000E+00  0.00000000000E+00  0.50372130172E+02  0.50372130172E+02  0.00000000000E+00 0.  1.
         13   -1    0    0    0    0 -0.00000000000E+00 -0.00000000000E+00 -0.10000000000E+04  0.10000000000E+04  0.00000000000E+00 0.  1.
    9000005    2    1    2  501    0  0.41480030608E+02 -0.12308487677E+02 -0.95112884985E+03  0.10070784268E+04  0.32815968211E+03 0.  0.
         13    1    3    3    0    0 -0.23093661147E+02 -0.91228489959E+02 -0.87443701475E+03  0.87948624056E+03  0.00000000000E+00 0.  1.
          3    1    3    3  501    0  0.64573691755E+02  0.78920002282E+02 -0.76691835097E+02  0.12759218627E+03  0.00000000000E+00 0.  1.
         21    1    1    2  502  501 -0.41480030608E+02  0.12308487677E+02  0.15009800201E+01  0.43293703343E+02  0.00000000000E+00 0.  1.
<mgrwt>
<rscale>  1 0.30000000E+03</rscale>
<asrwt>0</asrwt>
<pdfrwt beam="1">  1        1 0.18317177E+00 0.30000000E+03</pdfrwt>
<pdfrwt beam="2">0</pdfrwt>
<totfact> 0.12331815E+01</totfact>
</mgrwt>
</event>
<event>
 6    1  0.1940992E-004  0.3000000E+03  0.7818608E-02  0.1093470E+00
          1   -1    0    0  502    0  0.00000000000E+00  0.00000000000E+00  0.68304353742E+02  0.68304353742E+02  0.00000000000E+00 0.  1.
         13   -1    0    0    0    0 -0.00000000000E+00 -0.00000000000E+00 -0.10000000000E+04  0.10000000000E+04  0.00000000000E+00 0.  1.
    9000005    2    1    2  501    0  0.59817822997E+01  0.11968785639E+02 -0.96096906010E+03  0.10361179233E+04  0.38716893327E+03 0.  0.
         13    1    3    3    0    0 -0.87228453406E+02  0.30092111101E+02 -0.93240393595E+03  0.93695861062E+03  0.00000000000E+00 0.  1.
          1    1    3    3  501    0  0.93210235706E+02 -0.18123325462E+02 -0.28565124145E+02  0.99159312642E+02  0.00000000000E+00 0.  1.
         21    1    1    2  502  501 -0.59817822997E+01 -0.11968785639E+02  0.29273413841E+02  0.32186430480E+02  0.00000000000E+00 0.  1.
<mgrwt>
<rscale>  1 0.30000000E+03</rscale>
<asrwt>0</asrwt>
<pdfrwt beam="1">  1        1 0.24837999E+00 0.30000000E+03</pdfrwt>
<pdfrwt beam="2">0</pdfrwt>
<totfact> 0.60706357E+00</totfact>
</mgrwt>
</event>
<event>
 6    1  0.1940992E-004  0.3000000E+03  0.7818608E-02  0.1093470E+00
          1   -1    0    0  502    0  0.00000000000E+00  0.00000000000E+00  0.34140179026E+02  0.34140179026E+02  0.00000000000E+00 0.  1.
         13   -1    0    0    0    0 -0.00000000000E+00 -0.00000000000E+00 -0.10000000000E+04  0.10000000000E+04  0.00000000000E+00 0.  1.
    9000005    2    1    2  501    0  0.20841228453E+02 -0.59010070402E+01 -0.95961580860E+03  0.10115976331E+04  0.31937140204E+03 0.  0.
         13    1    3    3    0    0 -0.14273352705E+03 -0.36161878529E+02 -0.55307116254E+03  0.57233578608E+03  0.00000000000E+00 0.  1.
          1    1    3    3  501    0  0.16357475550E+03  0.30260871488E+02 -0.40654464606E+03  0.43926184699E+03  0.00000000000E+00 0.  1.
         21    1    1    2  502  501 -0.20841228453E+02  0.59010070402E+01 -0.62440123781E+01  0.22542545954E+02  0.00000000000E+00 0. -1.
<mgrwt>
<rscale>  1 0.30000000E+03</rscale>
<asrwt>0</asrwt>
<pdfrwt beam="1">  1        1 0.12414637E+00 0.30000000E+03</pdfrwt>
<pdfrwt beam="2">0</pdfrwt>
<totfact> 0.24641363E+01</totfact>
</mgrwt>
</event>
<event>
 6    1  0.1940992E-004  0.3000000E+03  0.7818608E-02  0.1093470E+00
          1   -1    0    0  502    0  0.00000000000E+00  0.00000000000E+00  0.38682205926E+02  0.38682205926E+02  0.00000000000E+00 0.  1.
         13   -1    0    0    0    0 -0.00000000000E+00 -0.00000000000E+00 -0.10000000000E+04  0.10000000000E+04  0.00000000000E+00 0.  1.
    9000005    2    1    2  501    0 -0.35871203873E+02  0.22040677150E+02 -0.93033862349E+03  0.98641133711E+03  0.32512280282E+03 0.  0.
         13    1    3    3    0    0  0.10304677111E+03  0.96699018140E+02 -0.24200860607E+03  0.28024543272E+03  0.00000000000E+00 0.  1.
          3    1    3    3  501    0 -0.13891797499E+03 -0.74658340990E+02 -0.68833001741E+03  0.70616590439E+03  0.00000000000E+00 0.  1.
         21    1    1    2  502  501  0.35871203873E+02 -0.22040677150E+02 -0.30979170588E+02  0.52270868816E+02  0.00000000000E+00 0.  1.
<mgrwt>
<rscale>  1 0.30000000E+03</rscale>
<asrwt>0</asrwt>
<pdfrwt beam="1">  1        1 0.14066286E+00 0.30000000E+03</pdfrwt>
<pdfrwt beam="2">0</pdfrwt>
<totfact> 0.20071127E+01</totfact>
</mgrwt>
</event>
<event>
 6    1  0.1940992E-004  0.3000000E+03  0.7818608E-02  0.1093470E+00
          1   -1    0    0  502    0  0.00000000000E+00  0.00000000000E+00  0.30782717643E+02  0.30782717643E+02  0.00000000000E+00 0.  1.
         13   -1    0    0    0    0 -0.00000000000E+00 -0.00000000000E+00 -0.10000000000E+04  0.10000000000E+04  0.00000000000E+00 0.  1.
    9000005    2    1    2  501    0 -0.57017362118E+01 -0.10914023950E+02 -0.96222406577E+03  0.10166218281E+04  0.32786149957E+03 0.  0.
         13    1    3    3    0    0 -0.15636458710E+03  0.52009130960E+02 -0.49028826257E+03  0.51724019006E+03  0.00000000000E+00 0.  1.
          3    1    3    3  501    0  0.15066285089E+03 -0.62923154911E+02 -0.47193580320E+03  0.49938163803E+03  0.00000000000E+00 0.  1.
         21    1    1    2  502  501  0.57017362118E+01  0.10914023950E+02 -0.69932165889E+01  0.14160889551E+02  0.00000000000E+00 0.  1.
<mgrwt>
<rscale>  1 0.30000000E+03</rscale>
<asrwt>0</asrwt>
<pdfrwt beam="1">  1        1 0.11193739E+00 0.30000000E+03</pdfrwt>
<pdfrwt beam="2">0</pdfrwt>
<totfact> 0.28934321E+01</totfact>
</mgrwt>
</event>
<event>
 6    1  0.1940992E-004  0.3000000E+03  0.7818608E-02  0.1093470E+00
          1   -1    0    0  502    0  0.00000000000E+00  0.00000000000E+00  0.95043620106E+02  0.95043620106E+02  0.00000000000E+00 0.  1.
         13   -1    0    0    0    0 -0.00000000000E+00 -0.00000000000E+00 -0.10000000000E+04  0.10000000000E+04  0.00000000000E+00 0.  1.
    9000005    2    1    2  501    0  0.30144911950E+00  0.12191360982E+02 -0.97465051671E+03  0.10242905788E+04  0.31476791426E+03 0.  0.
         13    1    3    3    0    0  0.14883286349E+03  0.18871285623E+02 -0.32669470866E+03  0.35949517291E+03  0.00000000000E+00 0.  1.
          1    1    3    3  501    0 -0.14853141438E+03 -0.66799246410E+01 -0.64795580805E+03  0.66479540584E+03  0.00000000000E+00 0.  1.
         21    1    1    2  502  501 -0.30144911950E+00 -0.12191360982E+02  0.69694136815E+02  0.70753041353E+02  0.00000000000E+00 0.  1.
<mgrwt>
<rscale>  1 0.30000000E+03</rscale>
<asrwt>0</asrwt>
<pdfrwt beam="1">  1        1 0.34561389E+00 0.30000000E+03</pdfrwt>
<pdfrwt beam="2">0</pdfrwt>
<totfact> 0.20732547E+00</totfact>
</mgrwt>
</event>
<event>
 6    1  0.1940992E-004  0.3000000E+03  0.7818608E-02  0.1093470E+00
          1   -1    0    0  502    0  0.00000000000E+00  0.00000000000E+00  0.39060086740E+02  0.39060086740E+02  0.00000000000E+00 0.  1.
         13   -1    0    0    0    0 -0.00000000000E+00 -0.00000000000E+00 -0.10000000000E+04  0.10000000000E+04  0.00000000000E+00 0.  1.
    9000005    2    1    2  501    0 -0.29913490397E+02  0.35564781573E+02 -0.93041477383E+03  0.98345923483E+03  0.31521539400E+03 0.  0.
         13    1    3    3    0    0  0.53388013679E+02 -0.53607860249E+02 -0.41665935762E+02  0.86372060806E+02  0.00000000000E+00 0.  1.
          3    1    3    3  501    0 -0.83301504075E+02  0.89172641822E+02 -0.88874883806E+03  0.89708717402E+03  0.00000000000E+00 0.  1.
         21    1    1    2  502  501  0.29913490397E+02 -0.35564781573E+02 -0.30525139434E+02  0.55600851914E+02  0.00000000000E+00 0.  1.
<mgrwt>
<rscale>  1 0.30000000E+03</rscale>
<asrwt>0</asrwt>
<pdfrwt beam="1">  1        1 0.14203698E+00 0.30000000E+03</pdfrwt>
<pdfrwt beam="2">0</pdfrwt>
<totfact> 0.19742317E+01</totfact>
</mgrwt>
</event>
<event>
 6    1  0.1940992E-004  0.3000000E+03  0.7818608E-02  0.1093470E+00
          1   -1    0    0  502    0  0.00000000000E+00  0.00000000000E+00  0.43730351212E+02  0.43730351212E+02  0.00000000000E+00 0.  1.
         13   -1    0    0    0    0 -0.00000000000E+00 -0.00000000000E+00 -0.10000000000E+04  0.10000000000E+04  0.00000000000E+00 0.  1.
    9000005    2    1    2  501    0 -0.18185982711E+02  0.31645932687E+01 -0.92964532048E+03  0.10113328285E+04  0.39775988179E+03 0.  0.
         13    1    3    3    0    0 -0.68332675360E+02 -0.66834010740E+02 -0.20040540646E+02  0.97661470309E+02  0.00000000000E+00 0.  1.
          1    1    3    3  501    0  0.50146692650E+02  0.69998604009E+02 -0.90960477983E+03  0.91367135823E+03  0.00000000000E+00 0.  1.
         21    1    1    2  502  501  0.18185982711E+02 -0.31645932687E+01 -0.26624328308E+02  0.32397522676E+02  0.00000000000E+00 0.  1.
<mgrwt>
<rscale>  1 0.30000000E+03</rscale>
<asrwt>0</asrwt>
<pdfrwt beam="1">  1        1 0.15901979E+00 0.30000000E+03</pdfrwt>
<pdfrwt beam="2">0</pdfrwt>
<totfact> 0.16183657E+01</totfact>
</mgrwt>
</event>
<event>
 6    1  0.1940992E-004  0.3000000E+03  0.7818608E-02  0.1093470E+00
          1   -1    0    0  502    0  0.00000000000E+00  0.00000000000E+00  0.36659150341E+02  0.36659150341E+02  0.00000000000E+00 0.  1.
         13   -1    0    0    0    0 -0.00000000000E+00 -0.00000000000E+00 -0.10000000000E+04  0.10000000000E+04  0.00000000000E+00 0.  1.
    9000005    2    1    2  501    0  0.38579415163E+02  0.44987699436E+02 -0.82845971089E+03  0.88933235044E+03  0.31789034680E+03 0.  0.
         13    1    3    3    0    0  0.61809197267E+01  0.10706596279E+03 -0.80979215863E+03  0.81686269613E+03  0.00000000000E+00 0.  1.
          3    1    3    3  501    0  0.32398495437E+02 -0.62078263351E+02 -0.18667552260E+02  0.72469654302E+02  0.00000000000E+00 0.  1.
         21    1    1    2  502  501 -0.38579415163E+02 -0.44987699436E+02 -0.13488113877E+03  0.14732679990E+03  0.00000000000E+00 0.  1.
<mgrwt>
<rscale>  1 0.30000000E+03</rscale>
<asrwt>0</asrwt>
<pdfrwt beam="1">  1        1 0.13330628E+00 0.30000000E+03</pdfrwt>
<pdfrwt beam="2">0</pdfrwt>
<totfact> 0.21956503E+01</totfact>
</mgrwt>
</event>
<event>
 6    1  0.1940992E-004  0.3000000E+03  0.7818608E-02  0.1093470E+00
          1   -1    0    0  502    0  0.00000000000E+00  0.00000000000E+00  0.67800856474E+02  0.67800856474E+02  0.00000000000E+00 0.  1.
         13   -1    0    0    0    0 -0.00000000000E+00 -0.00000000000E+00 -0.10000000000E+04  0.10000000000E+04  0.00000000000E+00 0.  1.
    9000005    2    1    2  501    0 -0.80926819590E+02 -0.88680574017E+02 -0.85348143991E+03  0.92423947170E+03  0.33372839021E+03 0.  0.
         13    1    3    3    0    0 -0.18911440013E+03 -0.93290687753E+02 -0.73074553434E+03  0.76056324176E+03  0.00000000000E+00 0.  1.
          1    1    3    3  501    0  0.10818758054E+03  0.46101137359E+01 -0.12273590557E+03  0.16367622994E+03  0.00000000000E+00 0.  1.
         21    1    1    2  502  501  0.80926819590E+02  0.88680574017E+02 -0.78717703617E+02  0.14356138478E+03  0.00000000000E+00 0.  1.
<mgrwt>
<rscale>  1 0.30000000E+03</rscale>
<asrwt>0</asrwt>
<pdfrwt beam="1">  1        1 0.24654909E+00 0.30000000E+03</pdfrwt>
<pdfrwt beam="2">0</pdfrwt>
<totfact> 0.61911422E+00</totfact>
</mgrwt>
</event>
<event>
 6    1  0.1940992E-004  0.3000000E+03  0.7818608E-02  0.1093470E+00
          1   -1    0    0  502    0  0.00000000000E+00  0.00000000000E+00  0.39057210408E+02  0.39057210408E+02  0.00000000000E+00 0.  1.
         13   -1    0    0    0    0 -0.00000000000E+00 -0.00000000000E+00 -0.10000000000E+04  0.10000000000E+04  0.00000000000E+00 0.  1.
    9000005    2    1    2  501    0 -0.73543755681E+01  0.23814117618E+02 -0.96023948623E+03  0.10141234246E+04  0.32521569830E+03 0.  0.
         13    1    3    3    0    0 -0.94245403027E+02  0.12700015379E+03 -0.73294150160E+03  0.74980962905E+03  0.00000000000E+00 0.  1.
          3    1    3    3  501    0  0.86891027459E+02 -0.10318603617E+03 -0.22729798463E+03  0.26431379557E+03  0.00000000000E+00 0.  1.
         21    1    1    2  502  501  0.73543755681E+01 -0.23814117618E+02 -0.70330336503E+00  0.24933785784E+02  0.00000000000E+00 0.  1.
<mgrwt>
<rscale>  1 0.30000000E+03</rscale>
<asrwt>0</asrwt>
<pdfrwt beam="1">  1        1 0.14202652E+00 0.30000000E+03</pdfrwt>
<pdfrwt beam="2">0</pdfrwt>
<totfact> 0.19744794E+01</totfact>
</mgrwt>
</event>
<event>
 6    1  0.1940992E-004  0.3000000E+03  0.7818608E-02  0.1093470E+00
          1   -1    0    0  502    0  0.00000000000E+00  0.00000000000E+00  0.65213825525E+02  0.65213825525E+02  0.00000000000E+00 0.  1.
         13   -1    0    0    0    0 -0.00000000000E+00 -0.00000000000E+00 -0.10000000000E+04  0.10000000000E+04  0.00000000000E+00 0.  1.
    9000005    2    1    2  501    0 -0.26997002405E+01  0.81386512110E+02 -0.92232684793E+03  0.98283489889E+03  0.32961579351E+03 0.  0.
         13    1    3    3    0    0  0.53961964911E+02  0.18551739498E+03 -0.36438648542E+03  0.41243921765E+03  0.00000000000E+00 0.  1.
          3    1    3    3  501    0 -0.56661665151E+02 -0.10413088287E+03 -0.55794036251E+03  0.57039568125E+03  0.00000000000E+00 0.  1.
         21    1    1    2  502  501  0.26997002405E+01 -0.81386512110E+02 -0.12459326542E+02  0.82378926630E+02  0.00000000000E+00 0.  1.
<mgrwt>
<rscale>  1 0.30000000E+03</rscale>
<asrwt>0</asrwt>
<pdfrwt beam="1">  1        1 0.23714168E+00 0.30000000E+03</pdfrwt>
<pdfrwt beam="2">0</pdfrwt>
<totfact> 0.68520559E+00</totfact>
</mgrwt>
</event>
<event>
 6    1  0.1940992E-004  0.3000000E+03  0.7818608E-02  0.1093470E+00
          3   -1    0    0  502    0  0.00000000000E+00  0.00000000000E+00  0.27207141225E+02  0.27207141225E+02  0.00000000000E+00 0.  1.
         13   -1    0    0    0    0 -0.00000000000E+00 -0.00000000000E+00 -0.10000000000E+04  0.10000000000E+04  0.00000000000E+00 0.  1.
    9000005    2    1    2  501    0 -0.33670823184E+01  0.79465256511E+01 -0.95542888291E+03  0.10078166237E+04  0.32058620078E+03 0.  0.
         13    1    3    3    0    0  0.14126250390E+03  0.44926481485E+02 -0.28815049575E+03  0.32404350317E+03  0.00000000000E+00 0.  1.
          1    1    3    3  501    0 -0.14462958622E+03 -0.36979955834E+02 -0.66727838716E+03  0.68377312050E+03  0.00000000000E+00 0.  1.
         21    1    1    2  502  501  0.33670823184E+01 -0.79465256511E+01 -0.17363975860E+02  0.19390517552E+02  0.00000000000E+00 0. -1.
<mgrwt>
<rscale>  1 0.30000000E+03</rscale>
<asrwt>0</asrwt>
<pdfrwt beam="1">  1        3 0.98935268E-01 0.30000000E+03</pdfrwt>
<pdfrwt beam="2">0</pdfrwt>
<totfact> 0.40280647E+00</totfact>
</mgrwt>
</event>
<event>
 6    1  0.1940992E-004  0.3000000E+03  0.7818608E-02  0.1093470E+00
          1   -1    0    0  502    0  0.00000000000E+00  0.00000000000E+00  0.31080606939E+02  0.31080606939E+02  0.00000000000E+00 0.  1.
         13   -1    0    0    0    0 -0.00000000000E+00 -0.00000000000E+00 -0.10000000000E+04  0.10000000000E+04  0.00000000000E+00 0.  1.
    9000005    2    1    2  501    0 -0.11063209221E+02 -0.57962848164E+01 -0.96407739661E+03  0.10176852180E+04  0.32570229460E+03 0.  0.
         13    1    3    3    0    0 -0.23256670026E+01  0.75892607892E+02 -0.92248014901E+03  0.92559965535E+03  0.00000000000E+00 0.  1.
          1    1    3    3  501    0 -0.87375422187E+01 -0.81688892708E+02 -0.41597247597E+02  0.92085562622E+02  0.00000000000E+00 0.  1.
         21    1    1    2  502  501  0.11063209221E+02  0.57962848164E+01 -0.48419964520E+01  0.13395388967E+02  0.00000000000E+00 0.  1.
<mgrwt>
<rscale>  1 0.30000000E+03</rscale>
<asrwt>0</asrwt>
<pdfrwt beam="1">  1        1 0.11302063E+00 0.30000000E+03</pdfrwt>
<pdfrwt beam="2">0</pdfrwt>
<totfact> 0.28513273E+01</totfact>
</mgrwt>
</event>
<event>
 6    1  0.1940992E-004  0.3000000E+03  0.7818608E-02  0.1093470E+00
          1   -1    0    0  502    0  0.00000000000E+00  0.00000000000E+00  0.25690644236E+02  0.25690644236E+02  0.00000000000E+00 0.  1.
         13   -1    0    0    0    0 -0.00000000000E+00 -0.00000000000E+00 -0.10000000000E+04  0.10000000000E+04  0.00000000000E+00 0.  1.
    9000005    2    1    2  501    0  0.90846138559E+01 -0.74160019378E+01 -0.96141946525E+03  0.10082643259E+04  0.30353259365E+03 0.  0.
         13    1    3    3    0    0 -0.10761395226E+03  0.61934972872E+02 -0.20430216040E+03  0.23907337018E+03  0.00000000000E+00 0.  1.
          3    1    3    3  501    0  0.11669856612E+03 -0.69350974810E+02 -0.75711730484E+03  0.76919095570E+03  0.00000000000E+00 0.  1.
         21    1    1    2  502  501 -0.90846138559E+01  0.74160019378E+01 -0.12889890517E+02  0.17426318349E+02  0.00000000000E+00 0. -1.
<mgrwt>
<rscale>  1 0.30000000E+03</rscale>
<asrwt>0</asrwt>
<pdfrwt beam="1">  1        1 0.93420721E-01 0.30000000E+03</pdfrwt>
<pdfrwt beam="2">0</pdfrwt>
<totfact> 0.37769564E+01</totfact>
</mgrwt>
</event>
<event>
 6    1  0.1940992E-004  0.3000000E+03  0.7818608E-02  0.1093470E+00
          1   -1    0    0  502    0  0.00000000000E+00  0.00000000000E+00  0.35648849735E+02  0.35648849735E+02  0.00000000000E+00 0.  1.
         13   -1    0    0    0    0 -0.00000000000E+00 -0.00000000000E+00 -0.10000000000E+04  0.10000000000E+04  0.00000000000E+00 0.  1.
    9000005    2    1    2  501    0  0.10588283566E+02 -0.66111098894E+01 -0.96875351177E+03  0.10224125621E+04  0.32663169183E+03 0.  0.
         13    1    3    3    0    0 -0.28578923648E+02 -0.14341803025E+03 -0.24934361988E+03  0.28906353463E+03  0.00000000000E+00 0.  1.
          3    1    3    3  501    0  0.39167207214E+02  0.13680692036E+03 -0.71940989189E+03  0.73334902750E+03  0.00000000000E+00 0.  1.
         21    1    1    2  502  501 -0.10588283566E+02  0.66111098894E+01  0.44023615030E+01  0.13236287608E+02  0.00000000000E+00 0.  1.
<mgrwt>
<rscale>  1 0.30000000E+03</rscale>
<asrwt>0</asrwt>
<pdfrwt beam="1">  1        1 0.12963245E+00 0.30000000E+03</pdfrwt>
<pdfrwt beam="2">0</pdfrwt>
<totfact> 0.22985526E+01</totfact>
</mgrwt>
</event>
<event>
 6    1  0.1940992E-004  0.3000000E+03  0.7818608E-02  0.1093470E+00
          1   -1    0    0  502    0  0.00000000000E+00  0.00000000000E+00  0.46999011883E+02  0.46999011883E+02  0.00000000000E+00 0.  1.
         13   -1    0    0    0    0 -0.00000000000E+00 -0.00000000000E+00 -0.10000000000E+04  0.10000000000E+04  0.00000000000E+00 0.  1.
    9000005    2    1    2  501    0  0.41746408344E+02  0.10536519305E+03 -0.79185250080E+03  0.84998779017E+03  0.28740959256E+03 0.  0.
         13    1    3    3    0    0  0.14062897549E+03 -0.27494284412E+02 -0.36064491991E+03  0.38806855410E+03  0.00000000000E+00 0.  1.
          1    1    3    3  501    0 -0.98882567144E+02  0.13285947746E+03 -0.43120758089E+03  0.46191923608E+03  0.00000000000E+00 0.  1.
         21    1    1    2  502  501 -0.41746408344E+02 -0.10536519305E+03 -0.16114848731E+03  0.19701122171E+03  0.00000000000E+00 0.  1.
<mgrwt>
<rscale>  1 0.30000000E+03</rscale>
<asrwt>0</asrwt>
<pdfrwt beam="1">  1        1 0.17090586E+00 0.30000000E+03</pdfrwt>
<pdfrwt beam="2">0</pdfrwt>
<totfact> 0.14142375E+01</totfact>
</mgrwt>
</event>
<event>
 6    1  0.1940992E-004  0.3000000E+03  0.7818608E-02  0.1093470E+00
          1   -1    0    0  502    0  0.00000000000E+00  0.00000000000E+00  0.31812603053E+02  0.31812603053E+02  0.00000000000E+00 0.  1.
         13   -1    0    0    0    0 -0.00000000000E+00 -0.00000000000E+00 -0.10000000000E+04  0.10000000000E+04  0.00000000000E+00 0.  1.
    9000005    2    1    2  501    0  0.22510828879E+02  0.10703357367E+02 -0.91147310168E+03  0.96986253797E+03  0.33049784901E+03 0.  0.
         13    1    3    3    0    0  0.56422161128E+01 -0.15729403009E+03 -0.35473863721E+03  0.38808858169E+03  0.00000000000E+00 0.  1.
          1    1    3    3  501    0  0.16868612766E+02  0.16799738745E+03 -0.55673446447E+03  0.58177395629E+03  0.00000000000E+00 0.  1.
         21    1    1    2  502  501 -0.22510828879E+02 -0.10703357367E+02 -0.56714295265E+02  0.61950065078E+02  0.00000000000E+00 0. -1.
<mgrwt>
<rscale>  1 0.30000000E+03</rscale>
<asrwt>0</asrwt>
<pdfrwt beam="1">  1        1 0.11568244E+00 0.30000000E+03</pdfrwt>
<pdfrwt beam="2">0</pdfrwt>
<totfact> 0.27514922E+01</totfact>
</mgrwt>
</event>
<event>
 6    1  0.1940992E-004  0.3000000E+03  0.7818608E-02  0.1093470E+00
          1   -1    0    0  502    0  0.00000000000E+00  0.00000000000E+00  0.46620226002E+02  0.46620226002E+02  0.00000000000E+00 0.  1.
         13   -1    0    0    0    0 -0.00000000000E+00 -0.00000000000E+00 -0.10000000000E+04  0.10000000000E+04  0.00000000000E+00 0.  1.
    9000005    2    1    2  501    0  0.80812963239E+00  0.14692341719E+02 -0.97047609083E+03  0.10240635856E+04  0.32659740728E+03 0.  0.
         13    1    3    3    0    0 -0.83939203865E+02  0.14664459955E+03 -0.46056847888E+03  0.49058511215E+03  0.00000000000E+00 0.  1.
          1    1    3    3  501    0  0.84747333497E+02 -0.13195225783E+03 -0.50990761194E+03  0.53347847342E+03  0.00000000000E+00 0.  1.
         21    1    1    2  502  501 -0.80812963239E+00 -0.14692341719E+02  0.17096316828E+02  0.22556640436E+02  0.00000000000E+00 0.  1.
<mgrwt>
<rscale>  1 0.30000000E+03</rscale>
<asrwt>0</asrwt>
<pdfrwt beam="1">  1        1 0.16952845E+00 0.30000000E+03</pdfrwt>
<pdfrwt beam="2">0</pdfrwt>
<totfact> 0.14363237E+01</totfact>
</mgrwt>
</event>
<event>
 6    1  0.1940992E-004  0.3000000E+03  0.7818608E-02  0.1093470E+00
          1   -1    0    0  502    0  0.00000000000E+00  0.00000000000E+00  0.32848067142E+02  0.32848067142E+02  0.00000000000E+00 0.  1.
         13   -1    0    0    0    0 -0.00000000000E+00 -0.00000000000E+00 -0.10000000000E+04  0.10000000000E+04  0.00000000000E+00 0.  1.
    9000005    2    1    2  501    0  0.39420497541E+02  0.98563302990E+01 -0.85785404788E+03  0.91624124687E+03  0.31926999879E+03 0.  0.
         13    1    3    3    0    0  0.17850586924E+03  0.17501105253E+02 -0.41797109945E+03  0.45483015953E+03  0.00000000000E+00 0.  1.
          1    1    3    3  501    0 -0.13908537170E+03 -0.76447749536E+01 -0.43988294843E+03  0.46141108734E+03  0.00000000000E+00 0.  1.
         21    1    1    2  502  501 -0.39420497541E+02 -0.98563302990E+01 -0.10929788498E+03  0.11660682027E+03  0.00000000000E+00 0.  1.
<mgrwt>
<rscale>  1 0.30000000E+03</rscale>
<asrwt>0</asrwt>
<pdfrwt beam="1">  1        1 0.11944777E+00 0.30000000E+03</pdfrwt>
<pdfrwt beam="2">0</pdfrwt>
<totfact> 0.26183828E+01</totfact>
</mgrwt>
</event>
<event>
 6    1  0.1940992E-004  0.3000000E+03  0.7818608E-02  0.1093470E+00
          1   -1    0    0  502    0  0.00000000000E+00  0.00000000000E+00  0.32074808028E+02  0.32074808028E+02  0.00000000000E+00 0.  1.
         13   -1    0    0    0    0 -0.00000000000E+00 -0.00000000000E+00 -0.10000000000E+04  0.10000000000E+04  0.00000000000E+00 0.  1.
    9000005    2    1    2  501    0  0.89374339310E+00 -0.20516173362E+02 -0.95660139995E+03  0.10086239997E+04  0.31908372285E+03 0.  0.
         13    1    3    3    0    0 -0.58650633048E+02  0.12721110229E+03 -0.62829455761E+03  0.64372091191E+03  0.00000000000E+00 0.  1.
          3    1    3    3  501    0  0.59544376441E+02 -0.14772727565E+03 -0.32830684234E+03  0.36490308777E+03  0.00000000000E+00 0.  1.
         21    1    1    2  502  501 -0.89374339310E+00  0.20516173362E+02 -0.11323792020E+02  0.23450808352E+02  0.00000000000E+00 0.  1.
<mgrwt>
<rscale>  1 0.30000000E+03</rscale>
<asrwt>0</asrwt>
<pdfrwt beam="1">  1        1 0.11663591E+00 0.30000000E+03</pdfrwt>
<pdfrwt beam="2">0</pdfrwt>
<totfact> 0.27169218E+01</totfact>
</mgrwt>
</event>
<event>
 6    1  0.1940992E-004  0.3000000E+03  0.7818608E-02  0.1093470E+00
          1   -1    0    0  502    0  0.00000000000E+00  0.00000000000E+00  0.29603734793E+02  0.29603734793E+02  0.00000000000E+00 0.  1.
         13   -1    0    0    0    0 -0.00000000000E+00 -0.00000000000E+00 -0.10000000000E+04  0.10000000000E+04  0.00000000000E+00 0.  1.
    9000005    2    1    2  501    0  0.13509755486E+02 -0.91358809885E+01 -0.92614530945E+03  0.98244310608E+03  0.32738867522E+03 0.  0.
         13    1    3    3    0    0 -0.43525733049E+02  0.15026515437E+03 -0.39015158737E+03  0.42034791207E+03  0.00000000000E+00 0.  1.
          1    1    3    3  501    0  0.57035488535E+02 -0.15940103536E+03 -0.53599372208E+03  0.56209519401E+03  0.00000000000E+00 0.  1.
         21    1    1    2  502  501 -0.13509755486E+02  0.91358809885E+01 -0.44250955759E+02  0.47160628710E+02  0.00000000000E+00 0.  1.
<mgrwt>
<rscale>  1 0.30000000E+03</rscale>
<asrwt>0</asrwt>
<pdfrwt beam="1">  1        1 0.10765017E+00 0.30000000E+03</pdfrwt>
<pdfrwt beam="2">0</pdfrwt>
<totfact> 0.30690214E+01</totfact>
</mgrwt>
</event>
<event>
 6    1  0.1940992E-004  0.3000000E+03  0.7818608E-02  0.1093470E+00
          1   -1    0    0  502    0  0.00000000000E+00  0.00000000000E+00  0.37101584743E+02  0.37101584743E+02  0.00000000000E+00 0.  1.
         13   -1    0    0    0    0 -0.00000000000E+00 -0.00000000000E+00 -0.10000000000E+04  0.10000000000E+04  0.00000000000E+00 0.  1.
    9000005    2    1    2  501    0  0.36790806604E+02  0.15974573762E+02 -0.92564675218E+03  0.98236186553E+03  0.32650294726E+03 0.  0.
         13    1    3    3    0    0  0.88685651132E+02 -0.12295737005E+03 -0.26525930276E+03  0.30552603370E+03  0.00000000000E+00 0.  1.
          1    1    3    3  501    0 -0.51894844527E+02  0.13893194381E+03 -0.66038744942E+03  0.67683583183E+03  0.00000000000E+00 0.  1.
         21    1    1    2  502  501 -0.36790806604E+02 -0.15974573762E+02 -0.37251663077E+02  0.54739719213E+02  0.00000000000E+00 0.  1.
<mgrwt>
<rscale>  1 0.30000000E+03</rscale>
<asrwt>0</asrwt>
<pdfrwt beam="1">  1        1 0.13491514E+00 0.30000000E+03</pdfrwt>
<pdfrwt beam="2">0</pdfrwt>
<totfact> 0.21524959E+01</totfact>
</mgrwt>
</event>
<event>
 6    1  0.1940992E-004  0.3000000E+03  0.7818608E-02  0.1093470E+00
          1   -1    0    0  502    0  0.00000000000E+00  0.00000000000E+00  0.37705549936E+02  0.37705549936E+02  0.00000000000E+00 0.  1.
         13   -1    0    0    0    0 -0.00000000000E+00 -0.00000000000E+00 -0.10000000000E+04  0.10000000000E+04  0.00000000000E+00 0.  1.
    9000005    2    1    2  501    0 -0.16564819290E+02 -0.29034435071E+02 -0.94810894810E+03  0.10013927406E+04  0.32056115133E+03 0.  0.
         13    1    3    3    0    0  0.12963522432E+03 -0.90969142588E+02 -0.56263664356E+03  0.58450035840E+03  0.00000000000E+00 0.  1.
          3    1    3    3  501    0 -0.14620004362E+03  0.61934707517E+02 -0.38547230454E+03  0.41689238217E+03  0.00000000000E+00 0.  1.
         21    1    1    2  502  501  0.16564819290E+02  0.29034435071E+02 -0.14185501966E+02  0.36312809366E+02  0.00000000000E+00 0.  1.
<mgrwt>
<rscale>  1 0.30000000E+03</rscale>
<asrwt>0</asrwt>
<pdfrwt beam="1">  1        1 0.13711138E+00 0.30000000E+03</pdfrwt>
<pdfrwt beam="2">0</pdfrwt>
<totfact> 0.20953876E+01</totfact>
</mgrwt>
</event>
<event>
 6    1  0.1940992E-004  0.3000000E+03  0.7818608E-02  0.1093470E+00
          1   -1    0    0  502    0  0.00000000000E+00  0.00000000000E+00  0.39719759334E+02  0.39719759334E+02  0.00000000000E+00 0.  1.
         13   -1    0    0    0    0 -0.00000000000E+00 -0.00000000000E+00 -0.10000000000E+04  0.10000000000E+04  0.00000000000E+00 0.  1.
    9000005    2    1    2  501    0  0.68030759798E+01 -0.10906241255E+02 -0.97020727672E+03  0.10234786391E+04  0.32563958142E+03 0.  0.
         13    1    3    3    0    0 -0.72658229950E+02 -0.68438618906E+02 -0.80097834376E+02  0.12797939681E+03  0.00000000000E+00 0.  1.
          1    1    3    3  501    0  0.79461305930E+02  0.57532377651E+02 -0.89010944234E+03  0.89549924230E+03  0.00000000000E+00 0.  1.
         21    1    1    2  502  501 -0.68030759798E+01  0.10906241255E+02  0.99270360535E+01  0.16241120217E+02  0.00000000000E+00 0. -1.
<mgrwt>
<rscale>  1 0.30000000E+03</rscale>
<asrwt>0</asrwt>
<pdfrwt beam="1">  1        1 0.14443579E+00 0.30000000E+03</pdfrwt>
<pdfrwt beam="2">0</pdfrwt>
<totfact> 0.19184494E+01</totfact>
</mgrwt>
</event>
<event>
 6    1  0.1940992E-004  0.3000000E+03  0.7818608E-02  0.1093470E+00
          1   -1    0    0  502    0  0.00000000000E+00  0.00000000000E+00  0.45903023134E+02  0.45903023134E+02  0.00000000000E+00 0.  1.
         13   -1    0    0    0    0 -0.00000000000E+00 -0.00000000000E+00 -0.10000000000E+04  0.10000000000E+04  0.00000000000E+00 0.  1.
    9000005    2    1    2  501    0 -0.62394396370E+02 -0.45356311584E+02 -0.86705775752E+03  0.92960134041E+03  0.32621962162E+03 0.  0.
         13    1    3    3    0    0  0.32547589950E+02 -0.15447980494E+03 -0.64904403250E+03  0.66796819674E+03  0.00000000000E+00 0.  1.
          3    1    3    3  501    0 -0.94941986320E+02  0.10912349335E+03 -0.21801372502E+03  0.26163314367E+03  0.00000000000E+00 0.  1.
         21    1    1    2  502  501  0.62394396370E+02  0.45356311584E+02 -0.87039219348E+02  0.11630168272E+03  0.00000000000E+00 0.  1.
<mgrwt>
<rscale>  1 0.30000000E+03</rscale>
<asrwt>0</asrwt>
<pdfrwt beam="1">  1        1 0.16692044E+00 0.30000000E+03</pdfrwt>
<pdfrwt beam="2">0</pdfrwt>
<totfact> 0.14792163E+01</totfact>
</mgrwt>
</event>
<event>
 6    1  0.1940992E-004  0.3000000E+03  0.7818608E-02  0.1093470E+00
          1   -1    0    0  502    0  0.00000000000E+00  0.00000000000E+00  0.46706422820E+02  0.46706422820E+02  0.00000000000E+00 0.  1.
         13   -1    0    0    0    0 -0.00000000000E+00 -0.00000000000E+00 -0.10000000000E+04  0.10000000000E+04  0.00000000000E+00 0.  1.
    9000005    2    1    2  501    0  0.29486676575E+02  0.19857051185E+02 -0.95556619583E+03  0.10110843598E+04  0.32851341140E+03 0.  0.
         13    1    3    3    0    0 -0.14797984804E+03 -0.17224966013E+02 -0.41576370224E+03  0.44164939826E+03  0.00000000000E+00 0.  1.
          3    1    3    3  501    0  0.17746652462E+03  0.37082017198E+02 -0.53980249359E+03  0.56943496156E+03  0.00000000000E+00 0.  1.
         21    1    1    2  502  501 -0.29486676575E+02 -0.19857051185E+02  0.22726186501E+01  0.35622063005E+02  0.00000000000E+00 0.  1.
<mgrwt>
<rscale>  1 0.30000000E+03</rscale>
<asrwt>0</asrwt>
<pdfrwt beam="1">  1        1 0.16984190E+00 0.30000000E+03</pdfrwt>
<pdfrwt beam="2">0</pdfrwt>
<totfact> 0.14312639E+01</totfact>
</mgrwt>
</event>
<event>
 6    1  0.1940992E-004  0.3000000E+03  0.7818608E-02  0.1093470E+00
          1   -1    0    0  502    0  0.00000000000E+00  0.00000000000E+00  0.28687943660E+02  0.28687943660E+02  0.00000000000E+00 0.  1.
         13   -1    0    0    0    0 -0.00000000000E+00 -0.00000000000E+00 -0.10000000000E+04  0.10000000000E+04  0.00000000000E+00 0.  1.
    9000005    2    1    2  501    0  0.64220879194E+00  0.82981796984E+01 -0.95066653565E+03  0.10064278955E+04  0.33024381094E+03 0.  0.
         13    1    3    3    0    0  0.14892791161E+02  0.14623288086E+03 -0.73834933055E+03  0.75283835224E+03  0.00000000000E+00 0.  1.
          3    1    3    3  501    0 -0.14250582369E+02 -0.13793470117E+03 -0.21231720510E+03  0.25358954329E+03  0.00000000000E+00 0.  1.
         21    1    1    2  502  501 -0.64220879194E+00 -0.82981796984E+01 -0.20645520686E+02  0.22260048132E+02  0.00000000000E+00 0.  1.
<mgrwt>
<rscale>  1 0.30000000E+03</rscale>
<asrwt>0</asrwt>
<pdfrwt beam="1">  1        1 0.10432002E+00 0.30000000E+03</pdfrwt>
<pdfrwt beam="2">0</pdfrwt>
<totfact> 0.32161244E+01</totfact>
</mgrwt>
</event>
<event>
 6    1  0.1940992E-004  0.3000000E+03  0.7818608E-02  0.1093470E+00
          1   -1    0    0  502    0  0.00000000000E+00  0.00000000000E+00  0.33525310863E+02  0.33525310863E+02  0.00000000000E+00 0.  1.
         13   -1    0    0    0    0 -0.00000000000E+00 -0.00000000000E+00 -0.10000000000E+04  0.10000000000E+04  0.00000000000E+00 0.  1.
    9000005    2    1    2  501    0 -0.18245084588E+02 -0.24842865289E+02 -0.93244730161E+03  0.98761328445E+03  0.32399379358E+03 0.  0.
         13    1    3    3    0    0 -0.50077417404E+02  0.81709252626E+02 -0.83279435229E+03  0.83829027366E+03  0.00000000000E+00 0.  1.
          1    1    3    3  501    0  0.31832332816E+02 -0.10655211792E+03 -0.99652949318E+02  0.14932301079E+03  0.00000000000E+00 0.  1.
         21    1    1    2  502  501  0.18245084588E+02  0.24842865289E+02 -0.34027387526E+02  0.45912026412E+02  0.00000000000E+00 0. -1.
<mgrwt>
<rscale>  1 0.30000000E+03</rscale>
<asrwt>0</asrwt>
<pdfrwt beam="1">  1        1 0.12191048E+00 0.30000000E+03</pdfrwt>
<pdfrwt beam="2">0</pdfrwt>
<totfact> 0.25359991E+01</totfact>
</mgrwt>
</event>
<event>
 6    1  0.1940992E-004  0.3000000E+03  0.7818608E-02  0.1093470E+00
          1   -1    0    0  502    0  0.00000000000E+00  0.00000000000E+00  0.30425634325E+02  0.30425634325E+02  0.00000000000E+00 0.  1.
         13   -1    0    0    0    0 -0.00000000000E+00 -0.00000000000E+00 -0.10000000000E+04  0.10000000000E+04  0.00000000000E+00 0.  1.
    9000005    2    1    2  501    0  0.16354282578E+01 -0.11273773907E+02 -0.96487588709E+03  0.10181029599E+04  0.32468197808E+03 0.  0.
         13    1    3    3    0    0  0.44780499108E+02  0.27619880549E+02 -0.95818784325E+03  0.95963122806E+03  0.00000000000E+00 0.  1.
          3    1    3    3  501    0 -0.43145070850E+02 -0.38893654456E+02 -0.66880438336E+01  0.58471731854E+02  0.00000000000E+00 0.  1.
         21    1    1    2  502  501 -0.16354282578E+01  0.11273773907E+02 -0.46984785893E+01  0.12322674416E+02  0.00000000000E+00 0. -1.
<mgrwt>
<rscale>  1 0.30000000E+03</rscale>
<asrwt>0</asrwt>
<pdfrwt beam="1">  1        1 0.11063890E+00 0.30000000E+03</pdfrwt>
<pdfrwt beam="2">0</pdfrwt>
<totfact> 0.29450745E+01</totfact>
</mgrwt>
</event>
<event>
 6    1  0.1940992E-004  0.3000000E+03  0.7818608E-02  0.1093470E+00
          1   -1    0    0  502    0  0.00000000000E+00  0.00000000000E+00  0.29508201796E+02  0.29508201796E+02  0.00000000000E+00 0.  1.
         13   -1    0    0    0    0 -0.00000000000E+00 -0.00000000000E+00 -0.10000000000E+04  0.10000000000E+04  0.00000000000E+00 0.  1.
    9000005    2    1    2  501    0 -0.10967908450E+01 -0.34229383432E+02 -0.88153362589E+03  0.93418553890E+03  0.30729177320E+03 0.  0.
         13    1    3    3    0    0  0.67461656442E+02 -0.77195727541E+02 -0.83414131847E+03  0.84041775006E+03  0.00000000000E+00 0.  1.
          1    1    3    3  501    0 -0.68558447287E+02  0.42966344109E+02 -0.47392307415E+02  0.93767788833E+02  0.00000000000E+00 0.  1.
         21    1    1    2  502  501  0.10967908450E+01  0.34229383432E+02 -0.88958172316E+02  0.95322662899E+02  0.00000000000E+00 0.  1.
<mgrwt>
<rscale>  1 0.30000000E+03</rscale>
<asrwt>0</asrwt>
<pdfrwt beam="1">  1        1 0.10730278E+00 0.30000000E+03</pdfrwt>
<pdfrwt beam="2">0</pdfrwt>
<totfact> 0.30839091E+01</totfact>
</mgrwt>
</event>
<event>
 6    1  0.1940992E-004  0.3000000E+03  0.7818608E-02  0.1093470E+00
          1   -1    0    0  502    0  0.00000000000E+00  0.00000000000E+00  0.37994676090E+02  0.37994676090E+02  0.00000000000E+00 0.  1.
         13   -1    0    0    0    0 -0.00000000000E+00 -0.00000000000E+00 -0.10000000000E+04  0.10000000000E+04  0.00000000000E+00 0.  1.
    9000005    2    1    2  501    0 -0.79983259162E+01 -0.16289074967E+02 -0.96730471739E+03  0.10190898949E+04  0.32021319527E+03 0.  0.
         13    1    3    3    0    0  0.25482274005E+02 -0.13432379645E+03 -0.80011602938E+03  0.81171293513E+03  0.00000000000E+00 0.  1.
          1    1    3    3  501    0 -0.33480599921E+02  0.11803472148E+03 -0.16718868800E+03  0.20737695977E+03  0.00000000000E+00 0.  1.
         21    1    1    2  502  501  0.79983259162E+01  0.16289074967E+02  0.52993934764E+01  0.18904781193E+02  0.00000000000E+00 0.  1.
<mgrwt>
<rscale>  1 0.30000000E+03</rscale>
<asrwt>0</asrwt>
<pdfrwt beam="1">  1        1 0.13816275E+00 0.30000000E+03</pdfrwt>
<pdfrwt beam="2">0</pdfrwt>
<totfact> 0.20687467E+01</totfact>
</mgrwt>
</event>
<event>
 6    1  0.1940992E-004  0.3000000E+03  0.7818608E-02  0.1093470E+00
          1   -1    0    0  502    0  0.00000000000E+00  0.00000000000E+00  0.56681215375E+02  0.56681215375E+02  0.00000000000E+00 0.  1.
         13   -1    0    0    0    0 -0.00000000000E+00 -0.00000000000E+00 -0.10000000000E+04  0.10000000000E+04  0.00000000000E+00 0.  1.
    9000005    2    1    2  501    0  0.77886173917E+02  0.25809100756E+01 -0.91091221033E+03  0.97228273647E+03  0.33090746066E+03 0.  0.
         13    1    3    3    0    0  0.10714431182E+03  0.15150581765E+03 -0.56036795484E+03  0.59029328401E+03  0.00000000000E+00 0.  1.
          1    1    3    3  501    0 -0.29258137902E+02 -0.14892490758E+03 -0.35054425549E+03  0.38198945246E+03  0.00000000000E+00 0.  1.
         21    1    1    2  502  501 -0.77886173917E+02 -0.25809100756E+01 -0.32406574292E+02  0.84398478905E+02  0.00000000000E+00 0.  1.
<mgrwt>
<rscale>  1 0.30000000E+03</rscale>
<asrwt>0</asrwt>
<pdfrwt beam="1">  1        1 0.20611395E+00 0.30000000E+03</pdfrwt>
<pdfrwt beam="2">0</pdfrwt>
<totfact> 0.95817158E+00</totfact>
</mgrwt>
</event>
<event>
 6    1  0.1940992E-004  0.3000000E+03  0.7818608E-02  0.1093470E+00
          1   -1    0    0  502    0  0.00000000000E+00  0.00000000000E+00  0.30106489473E+02  0.30106489473E+02  0.00000000000E+00 0.  1.
         13   -1    0    0    0    0 -0.00000000000E+00 -0.00000000000E+00 -0.10000000000E+04  0.10000000000E+04  0.00000000000E+00 0.  1.
    9000005    2    1    2  501    0 -0.36544499162E+01 -0.16507024181E+02 -0.94148840433E+03  0.99705067441E+03  0.32775569408E+03 0.  0.
         13    1    3    3    0    0 -0.57870939434E+02 -0.46959929716E+02 -0.25225957834E+02  0.78680554005E+02  0.00000000000E+00 0.  1.
          3    1    3    3  501    0  0.54216489518E+02  0.30452905535E+02 -0.91626244650E+03  0.91837012041E+03  0.00000000000E+00 0.  1.
         21    1    1    2  502  501  0.36544499162E+01  0.16507024181E+02 -0.28405106192E+02  0.33055815060E+02  0.00000000000E+00 0.  1.
<mgrwt>
<rscale>  1 0.30000000E+03</rscale>
<asrwt>0</asrwt>
<pdfrwt beam="1">  1        1 0.10947837E+00 0.30000000E+03</pdfrwt>
<pdfrwt beam="2">0</pdfrwt>
<totfact> 0.29923417E+01</totfact>
</mgrwt>
</event>
<event>
 6    1  0.1940992E-004  0.3000000E+03  0.7818608E-02  0.1093470E+00
          1   -1    0    0  502    0  0.00000000000E+00  0.00000000000E+00  0.34743657127E+02  0.34743657127E+02  0.00000000000E+00 0.  1.
         13   -1    0    0    0    0 -0.00000000000E+00 -0.00000000000E+00 -0.10000000000E+04  0.10000000000E+04  0.00000000000E+00 0.  1.
    9000005    2    1    2  501    0 -0.34470299678E+02  0.20620196047E+02 -0.88228826113E+03  0.94256395962E+03  0.32921246665E+03 0.  0.
         13    1    3    3    0    0 -0.73315859734E+02  0.16058578937E+03 -0.36791145635E+03  0.40807088937E+03  0.00000000000E+00 0.  1.
          1    1    3    3  501    0  0.38845560055E+02 -0.13996559332E+03 -0.51437680478E+03  0.53449307025E+03  0.00000000000E+00 0.  1.
         21    1    1    2  502  501  0.34470299678E+02 -0.20620196047E+02 -0.82968081741E+02  0.92179697508E+02  0.00000000000E+00 0. -1.
<mgrwt>
<rscale>  1 0.30000000E+03</rscale>
<asrwt>0</asrwt>
<pdfrwt beam="1">  1        1 0.12634084E+00 0.30000000E+03</pdfrwt>
<pdfrwt beam="2">0</pdfrwt>
<totfact> 0.23961285E+01</totfact>
</mgrwt>
</event>
<event>
 6    1  0.1940992E-004  0.3000000E+03  0.7818608E-02  0.1093470E+00
          1   -1    0    0  502    0  0.00000000000E+00  0.00000000000E+00  0.30797286132E+02  0.30797286132E+02  0.00000000000E+00 0.  1.
         13   -1    0    0    0    0 -0.00000000000E+00 -0.00000000000E+00 -0.10000000000E+04  0.10000000000E+04  0.00000000000E+00 0.  1.
    9000005    2    1    2  501    0  0.12147944827E+02  0.20801206232E+01 -0.96890326540E+03  0.10184688988E+04  0.31361355298E+03 0.  0.
         13    1    3    3    0    0  0.16280775580E+03  0.87481973773E+01 -0.50640760374E+03  0.53200710280E+03  0.00000000000E+00 0.  1.
          1    1    3    3  501    0 -0.15065981098E+03 -0.66680767541E+01 -0.46249566166E+03  0.48646179597E+03  0.00000000000E+00 0.  1.
         21    1    1    2  502  501 -0.12147944827E+02 -0.20801206232E+01 -0.29944846974E+00  0.12328387353E+02  0.00000000000E+00 0.  1.
<mgrwt>
<rscale>  1 0.30000000E+03</rscale>
<asrwt>0</asrwt>
<pdfrwt beam="1">  1        1 0.11199037E+00 0.30000000E+03</pdfrwt>
<pdfrwt beam="2">0</pdfrwt>
<totfact> 0.28913524E+01</totfact>
</mgrwt>
</event>
<event>
 6    1  0.1940992E-004  0.3000000E+03  0.7818608E-02  0.1093470E+00
          1   -1    0    0  502    0  0.00000000000E+00  0.00000000000E+00  0.11278397671E+03  0.11278397671E+03  0.00000000000E+00 0.  1.
         13   -1    0    0    0    0 -0.00000000000E+00 -0.00000000000E+00 -0.10000000000E+04  0.10000000000E+04  0.00000000000E+00 0.  1.
    9000005    2    1    2  501    0  0.51188271928E+02  0.62179943168E+02 -0.94799044192E+03  0.10118874234E+04  0.34459207058E+03 0.  0.
         13    1    3    3    0    0  0.65040210853E+02  0.17473231676E+03 -0.29397556445E+03  0.34811383776E+03  0.00000000000E+00 0.  1.
          3    1    3    3  501    0 -0.13851938925E+02 -0.11255237359E+03 -0.65401487747E+03  0.66377358562E+03  0.00000000000E+00 0.  1.
         21    1    1    2  502  501 -0.51188271928E+02 -0.62179943168E+02  0.60774418624E+02  0.10089655333E+03  0.00000000000E+00 0.  1.
<mgrwt>
<rscale>  1 0.30000000E+03</rscale>
<asrwt>0</asrwt>
<pdfrwt beam="1">  1        1 0.41012442E+00 0.30000000E+03</pdfrwt>
<pdfrwt beam="2">0</pdfrwt>
<totfact> 0.91979126E-01</totfact>
</mgrwt>
</event>
<event>
 6    1  0.1940992E-004  0.3000000E+03  0.7818608E-02  0.1093470E+00
          1   -1    0    0  502    0  0.00000000000E+00  0.00000000000E+00  0.35009173063E+02  0.35009173063E+02  0.00000000000E+00 0.  1.
         13   -1    0    0    0    0 -0.00000000000E+00 -0.00000000000E+00 -0.10000000000E+04  0.10000000000E+04  0.00000000000E+00 0.  1.
    9000005    2    1    2  501    0 -0.38646962668E+02 -0.11885028575E+02 -0.92536796377E+03  0.97839810601E+03  0.31515415885E+03 0.  0.
         13    1    3    3    0    0 -0.11623827576E+03 -0.81731257537E+02 -0.81177727019E+03  0.82411993763E+03  0.00000000000E+00 0.  1.
          1    1    3    3  501    0  0.77591313096E+02  0.69846228962E+02 -0.11359069358E+03  0.15427816837E+03  0.00000000000E+00 0.  1.
         21    1    1    2  502  501  0.38646962668E+02  0.11885028575E+02 -0.39622863168E+02  0.56611067057E+02  0.00000000000E+00 0.  1.
<mgrwt>
<rscale>  1 0.30000000E+03</rscale>
<asrwt>0</asrwt>
<pdfrwt beam="1">  1        1 0.12730635E+00 0.30000000E+03</pdfrwt>
<pdfrwt beam="2">0</pdfrwt>
<totfact> 0.23669641E+01</totfact>
</mgrwt>
</event>
<event>
 6    1  0.1940992E-004  0.3000000E+03  0.7818608E-02  0.1093470E+00
          1   -1    0    0  502    0  0.00000000000E+00  0.00000000000E+00  0.71346609378E+02  0.71346609378E+02  0.00000000000E+00 0.  1.
         13   -1    0    0    0    0 -0.00000000000E+00 -0.00000000000E+00 -0.10000000000E+04  0.10000000000E+04  0.00000000000E+00 0.  1.
    9000005    2    1    2  501    0 -0.24972637567E+02 -0.25273307022E+01 -0.96755896861E+03  0.10250468899E+04  0.33752147886E+03 0.  0.
         13    1    3    3    0    0 -0.13916126557E+03 -0.47137242903E+02 -0.20227540965E+03  0.25000623763E+03  0.00000000000E+00 0.  1.
          3    1    3    3  501    0  0.11418862800E+03  0.44609912200E+02 -0.76528355896E+03  0.77504065225E+03  0.00000000000E+00 0.  1.
         21    1    1    2  502  501  0.24972637567E+02  0.25273307022E+01  0.38905577983E+02  0.46299719499E+02  0.00000000000E+00 0. -1.
<mgrwt>
<rscale>  1 0.30000000E+03</rscale>
<asrwt>0</asrwt>
<pdfrwt beam="1">  1        1 0.25944276E+00 0.30000000E+03</pdfrwt>
<pdfrwt beam="2">0</pdfrwt>
<totfact> 0.53906714E+00</totfact>
</mgrwt>
</event>
<event>
 6    1  0.1940992E-004  0.3000000E+03  0.7818608E-02  0.1093470E+00
          3   -1    0    0  502    0  0.00000000000E+00  0.00000000000E+00  0.37236482943E+02  0.37236482943E+02  0.00000000000E+00 0.  1.
         13   -1    0    0    0    0 -0.00000000000E+00 -0.00000000000E+00 -0.10000000000E+04  0.10000000000E+04  0.00000000000E+00 0.  1.
    9000005    2    1    2  501    0 -0.29339394978E+02  0.17173774073E+02 -0.92277853371E+03  0.98475279493E+03  0.34214340012E+03 0.  0.
         13    1    3    3    0    0 -0.33178168693E+02  0.84257315869E+02 -0.91225742387E+03  0.91674079955E+03  0.00000000000E+00 0.  1.
          1    1    3    3  501    0  0.38387737154E+01 -0.67083541795E+02 -0.10521109835E+02  0.68011995380E+02  0.00000000000E+00 0.  1.
         21    1    1    2  502  501  0.29339394978E+02 -0.17173774073E+02 -0.39984983351E+02  0.52483688011E+02  0.00000000000E+00 0. -1.
<mgrwt>
<rscale>  1 0.30000000E+03</rscale>
<asrwt>0</asrwt>
<pdfrwt beam="1">  1        3 0.13540568E+00 0.30000000E+03</pdfrwt>
<pdfrwt beam="2">0</pdfrwt>
<totfact> 0.15260995E+00</totfact>
</mgrwt>
</event>
<event>
 6    1  0.1940992E-004  0.3000000E+03  0.7818608E-02  0.1093470E+00
          1   -1    0    0  502    0  0.00000000000E+00  0.00000000000E+00  0.30203008085E+02  0.30203008085E+02  0.00000000000E+00 0.  1.
         13   -1    0    0    0    0 -0.00000000000E+00 -0.00000000000E+00 -0.10000000000E+04  0.10000000000E+04  0.00000000000E+00 0.  1.
    9000005    2    1    2  501    0 -0.79756736815E+01 -0.95434926440E+01 -0.96122017647E+03  0.10150950173E+04  0.32606590877E+03 0.  0.
         13    1    3    3    0    0 -0.14770483642E+02 -0.12983520876E+03 -0.81602341306E+03  0.82641972343E+03  0.00000000000E+00 0.  1.
          1    1    3    3  501    0  0.67948099603E+01  0.12029171612E+03 -0.14519676341E+03  0.18867529386E+03  0.00000000000E+00 0.  1.
         21    1    1    2  502  501  0.79756736815E+01  0.95434926440E+01 -0.85768154497E+01  0.15107990792E+02  0.00000000000E+00 0.  1.
<mgrwt>
<rscale>  1 0.30000000E+03</rscale>
<asrwt>0</asrwt>
<pdfrwt beam="1">  1        1 0.10982935E+00 0.30000000E+03</pdfrwt>
<pdfrwt beam="2">0</pdfrwt>
<totfact> 0.29779338E+01</totfact>
</mgrwt>
</event>
<event>
 6    1  0.1940992E-004  0.3000000E+03  0.7818608E-02  0.1093470E+00
          1   -1    0    0  502    0  0.00000000000E+00  0.00000000000E+00  0.27151491686E+02  0.27151491686E+02  0.00000000000E+00 0.  1.
         13   -1    0    0    0    0 -0.00000000000E+00 -0.00000000000E+00 -0.10000000000E+04  0.10000000000E+04  0.00000000000E+00 0.  1.
    9000005    2    1    2  501    0  0.66160314916E+01 -0.10154611424E+02 -0.92871298972E+03  0.98138215689E+03  0.31694831217E+03 0.  0.
         13    1    3    3    0    0  0.10185230571E+03 -0.19721287026E+02 -0.85314982933E+03  0.85943437948E+03  0.00000000000E+00 0.  1.
          1    1    3    3  501    0 -0.95236274216E+02  0.95666756020E+01 -0.75563160387E+02  0.12194777741E+03  0.00000000000E+00 0.  1.
         21    1    1    2  502  501 -0.66160314916E+01  0.10154611424E+02 -0.44135518596E+02  0.45769334795E+02  0.00000000000E+00 0. -1.
<mgrwt>
<rscale>  1 0.30000000E+03</rscale>
<asrwt>0</asrwt>
<pdfrwt beam="1">  1        1 0.98732905E-01 0.30000000E+03</pdfrwt>
<pdfrwt beam="2">0</pdfrwt>
<totfact> 0.34869812E+01</totfact>
</mgrwt>
</event>
<event>
 6    1  0.1940992E-004  0.3000000E+03  0.7818608E-02  0.1093470E+00
          3   -1    0    0  502    0  0.00000000000E+00  0.00000000000E+00  0.24393437304E+02  0.24393437304E+02  0.00000000000E+00 0.  1.
         13   -1    0    0    0    0 -0.00000000000E+00 -0.00000000000E+00 -0.10000000000E+04  0.10000000000E+04  0.00000000000E+00 0.  1.
    9000005    2    1    2  501    0  0.82539402857E+01 -0.58386701228E+01 -0.96748241212E+03  0.10114234943E+04  0.29470841429E+03 0.  0.
         13    1    3    3    0    0 -0.81168051324E+02 -0.67688244886E+02 -0.13295958834E+03  0.16984758810E+03  0.00000000000E+00 0.  1.
          3    1    3    3  501    0  0.89421991610E+02  0.61849574763E+02 -0.83452282378E+03  0.84157590620E+03  0.00000000000E+00 0.  1.
         21    1    1    2  502  501 -0.82539402857E+01  0.58386701228E+01 -0.81241505738E+01  0.12969943006E+02  0.00000000000E+00 0. -1.
<mgrwt>
<rscale>  1 0.30000000E+03</rscale>
<asrwt>0</asrwt>
<pdfrwt beam="1">  1        3 0.88703595E-01 0.30000000E+03</pdfrwt>
<pdfrwt beam="2">0</pdfrwt>
<totfact> 0.52829491E+00</totfact>
</mgrwt>
</event>
<event>
 6    1  0.1940992E-004  0.3000000E+03  0.7818608E-02  0.1093470E+00
          1   -1    0    0  502    0  0.00000000000E+00  0.00000000000E+00  0.29624570056E+02  0.29624570056E+02  0.00000000000E+00 0.  1.
         13   -1    0    0    0    0 -0.00000000000E+00 -0.00000000000E+00 -0.10000000000E+04  0.10000000000E+04  0.00000000000E+00 0.  1.
    9000005    2    1    2  501    0 -0.62087724663E+01  0.10212126581E+02 -0.96389086568E+03  0.10160272924E+04  0.32106544762E+03 0.  0.
         13    1    3    3    0    0 -0.11205376440E+03 -0.11280229110E+03 -0.47369331216E+03  0.49966564519E+03  0.00000000000E+00 0.  1.
          3    1    3    3  501    0  0.10584499194E+03  0.12301441768E+03 -0.49019755352E+03  0.51636164726E+03  0.00000000000E+00 0.  1.
         21    1    1    2  502  501  0.62087724663E+01 -0.10212126581E+02 -0.64845642608E+01  0.13597277614E+02  0.00000000000E+00 0.  1.
<mgrwt>
<rscale>  1 0.30000000E+03</rscale>
<asrwt>0</asrwt>
<pdfrwt beam="1">  1        1 0.10772594E+00 0.30000000E+03</pdfrwt>
<pdfrwt beam="2">0</pdfrwt>
<totfact> 0.30657881E+01</totfact>
</mgrwt>
</event>
<event>
 6    1  0.1940992E-004  0.3000000E+03  0.7818608E-02  0.1093470E+00
          1   -1    0    0  502    0  0.00000000000E+00  0.00000000000E+00  0.47730295330E+02  0.47730295330E+02  0.00000000000E+00 0.  1.
         13   -1    0    0    0    0 -0.00000000000E+00 -0.00000000000E+00 -0.10000000000E+04  0.10000000000E+04  0.00000000000E+00 0.  1.
    9000005    2    1    2  501    0  0.20909655301E+02  0.10593760546E+02 -0.96675979972E+03  0.10201730041E+04  0.32492923296E+03 0.  0.
         13    1    3    3    0    0  0.13598348284E+03 -0.92932876684E+02 -0.39819642200E+03  0.43091578953E+03  0.00000000000E+00 0.  1.
          3    1    3    3  501    0 -0.11507382754E+03  0.10352663723E+03 -0.56856337772E+03  0.58925721454E+03  0.00000000000E+00 0.  1.
         21    1    1    2  502  501 -0.20909655301E+02 -0.10593760546E+02  0.14490095046E+02  0.27557291264E+02  0.00000000000E+00 0.  1.
<mgrwt>
<rscale>  1 0.30000000E+03</rscale>
<asrwt>0</asrwt>
<pdfrwt beam="1">  1        1 0.17356508E+00 0.30000000E+03</pdfrwt>
<pdfrwt beam="2">0</pdfrwt>
<totfact> 0.13726636E+01</totfact>
</mgrwt>
</event>
<event>
 6    1  0.1940992E-004  0.3000000E+03  0.7818608E-02  0.1093470E+00
          1   -1    0    0  502    0  0.00000000000E+00  0.00000000000E+00  0.30800167791E+02  0.30800167791E+02  0.00000000000E+00 0.  1.
         13   -1    0    0    0    0 -0.00000000000E+00 -0.00000000000E+00 -0.10000000000E+04  0.10000000000E+04  0.00000000000E+00 0.  1.
    9000005    2    1    2  501    0  0.24089165535E+02 -0.21930771716E+02 -0.92650120248E+03  0.97709337469E+03  0.30861908241E+03 0.  0.
         13    1    3    3    0    0  0.84240279955E+02 -0.97401572536E+02 -0.16404113916E+03  0.20854972174E+03  0.00000000000E+00 0.  1.
          3    1    3    3  501    0 -0.60151114420E+02  0.75470800820E+02 -0.76246006332E+03  0.76854365296E+03  0.00000000000E+00 0.  1.
         21    1    1    2  502  501 -0.24089165535E+02  0.21930771716E+02 -0.42698629728E+02  0.53706793097E+02  0.00000000000E+00 0.  1.
<mgrwt>
<rscale>  1 0.30000000E+03</rscale>
<asrwt>0</asrwt>
<pdfrwt beam="1">  1        1 0.11200085E+00 0.30000000E+03</pdfrwt>
<pdfrwt beam="2">0</pdfrwt>
<totfact> 0.28909412E+01</totfact>
</mgrwt>
</event>
<event>
 6    1  0.1940992E-004  0.3000000E+03  0.7818608E-02  0.1093470E+00
          1   -1    0    0  502    0  0.00000000000E+00  0.00000000000E+00  0.44564221898E+02  0.44564221898E+02  0.00000000000E+00 0.  1.
         13   -1    0    0    0    0 -0.00000000000E+00 -0.00000000000E+00 -0.10000000000E+04  0.10000000000E+04  0.00000000000E+00 0.  1.
    9000005    2    1    2  501    0  0.86065824212E+01  0.75405268206E+01 -0.96954171039E+03  0.10264007935E+04  0.33668461190E+03 0.  0.
         13    1    3    3    0    0  0.49415691837E+02  0.13918815754E+03 -0.22457912997E+03  0.26879553460E+03  0.00000000000E+00 0.  1.
          1    1    3    3  501    0 -0.40809109416E+02 -0.13164763072E+03 -0.74496258042E+03  0.75760525889E+03  0.00000000000E+00 0.  1.
         21    1    1    2  502  501 -0.86065824212E+01 -0.75405268206E+01  0.14105932288E+02  0.18163428405E+02  0.00000000000E+00 0.  1.
<mgrwt>
<rscale>  1 0.30000000E+03</rscale>
<asrwt>0</asrwt>
<pdfrwt beam="1">  1        1 0.16205206E+00 0.30000000E+03</pdfrwt>
<pdfrwt beam="2">0</pdfrwt>
<totfact> 0.15632474E+01</totfact>
</mgrwt>
</event>
<event>
 6    1  0.1940992E-004  0.3000000E+03  0.7818608E-02  0.1093470E+00
          1   -1    0    0  502    0  0.00000000000E+00  0.00000000000E+00  0.34860823175E+02  0.34860823175E+02  0.00000000000E+00 0.  1.
         13   -1    0    0    0    0 -0.00000000000E+00 -0.00000000000E+00 -0.10000000000E+04  0.10000000000E+04  0.00000000000E+00 0.  1.
    9000005    2    1    2  501    0  0.17496064148E+02 -0.45996162690E+02 -0.87015887949E+03  0.92788878886E+03  0.31840127151E+03 0.  0.
         13    1    3    3    0    0  0.11419324273E+03 -0.57530057824E+02 -0.79408665349E+03  0.80431549623E+03  0.00000000000E+00 0.  1.
          1    1    3    3  501    0 -0.96697178578E+02  0.11533895134E+02 -0.76072226002E+02  0.12357329263E+03  0.00000000000E+00 0.  1.
         21    1    1    2  502  501 -0.17496064148E+02  0.45996162690E+02 -0.94980297336E+02  0.10697203431E+03  0.00000000000E+00 0. -1.
<mgrwt>
<rscale>  1 0.30000000E+03</rscale>
<asrwt>0</asrwt>
<pdfrwt beam="1">  1        1 0.12676690E+00 0.30000000E+03</pdfrwt>
<pdfrwt beam="2">0</pdfrwt>
<totfact> 0.23832026E+01</totfact>
</mgrwt>
</event>
<event>
 6    1  0.1940992E-004  0.3000000E+03  0.7818608E-02  0.1093470E+00
          1   -1    0    0  502    0  0.00000000000E+00  0.00000000000E+00  0.99445286665E+02  0.99445286665E+02  0.00000000000E+00 0.  1.
         13   -1    0    0    0    0 -0.00000000000E+00 -0.00000000000E+00 -0.10000000000E+04  0.10000000000E+04  0.00000000000E+00 0.  1.
    9000005    2    1    2  501    0 -0.98555951797E+01  0.14458355165E+03 -0.88522611820E+03  0.95371779443E+03  0.32396113178E+03 0.  0.
         13    1    3    3    0    0  0.14526621644E+03  0.57262222926E+02 -0.25660730813E+03  0.30038066915E+03  0.00000000000E+00 0.  1.
          1    1    3    3  501    0 -0.15512181162E+03  0.87321328728E+02 -0.62861881007E+03  0.65333712528E+03  0.00000000000E+00 0.  1.
         21    1    1    2  502  501  0.98555951797E+01 -0.14458355165E+03 -0.15328595139E+02  0.14572749224E+03  0.00000000000E+00 0. -1.
<mgrwt>
<rscale>  1 0.30000000E+03</rscale>
<asrwt>0</asrwt>
<pdfrwt beam="1">  1        1 0.36161999E+00 0.30000000E+03</pdfrwt>
<pdfrwt beam="2">0</pdfrwt>
<totfact> 0.17119272E+00</totfact>
</mgrwt>
</event>
<event>
 6    1  0.1940992E-004  0.3000000E+03  0.7818608E-02  0.1093470E+00
          1   -1    0    0  502    0  0.00000000000E+00  0.00000000000E+00  0.34189618776E+02  0.34189618776E+02  0.00000000000E+00 0.  1.
         13   -1    0    0    0    0 -0.00000000000E+00 -0.00000000000E+00 -0.10000000000E+04  0.10000000000E+04  0.00000000000E+00 0.  1.
    9000005    2    1    2  501    0  0.20675918565E+02  0.10143046384E+02 -0.95379423201E+03  0.10082134212E+04  0.32594553330E+03 0.  0.
         13    1    3    3    0    0  0.13971884689E+03 -0.49179311820E+02 -0.23920873727E+03  0.28135525741E+03  0.00000000000E+00 0.  1.
          1    1    3    3  501    0 -0.11904292833E+03  0.59322358204E+02 -0.71458549475E+03  0.72685816379E+03  0.00000000000E+00 0.  1.
         21    1    1    2  502  501 -0.20675918565E+02 -0.10143046384E+02 -0.12016149212E+02  0.25976197573E+02  0.00000000000E+00 0.  1.
<mgrwt>
<rscale>  1 0.30000000E+03</rscale>
<asrwt>0</asrwt>
<pdfrwt beam="1">  1        1 0.12432615E+00 0.30000000E+03</pdfrwt>
<pdfrwt beam="2">0</pdfrwt>
<totfact> 0.24584734E+01</totfact>
</mgrwt>
</event>
<event>
 6    1  0.1940992E-004  0.3000000E+03  0.7818608E-02  0.1093470E+00
          1   -1    0    0  502    0  0.00000000000E+00  0.00000000000E+00  0.39953012314E+02  0.39953012314E+02  0.00000000000E+00 0.  1.
         13   -1    0    0    0    0 -0.00000000000E+00 -0.00000000000E+00 -0.10000000000E+04  0.10000000000E+04  0.00000000000E+00 0.  1.
    9000005    2    1    2  501    0  0.14767922354E+02 -0.27929645437E+02 -0.95430172514E+03  0.10078412595E+04  0.32257412354E+03 0.  0.
         13    1    3    3    0    0 -0.58275127372E+02 -0.14824410626E+03 -0.69270295184E+03  0.71078103871E+03  0.00000000000E+00 0.  1.
          3    1    3    3  501    0  0.73043049726E+02  0.12031446083E+03 -0.26159877331E+03  0.29706022082E+03  0.00000000000E+00 0.  1.
         21    1    1    2  502  501 -0.14767922354E+02  0.27929645437E+02 -0.57452625423E+01  0.32111752780E+02  0.00000000000E+00 0. -1.
<mgrwt>
<rscale>  1 0.30000000E+03</rscale>
<asrwt>0</asrwt>
<pdfrwt beam="1">  1        1 0.14528399E+00 0.30000000E+03</pdfrwt>
<pdfrwt beam="2">0</pdfrwt>
<totfact> 0.18992025E+01</totfact>
</mgrwt>
</event>
<event>
 6    1  0.1940992E-004  0.3000000E+03  0.7818608E-02  0.1093470E+00
          1   -1    0    0  502    0  0.00000000000E+00  0.00000000000E+00  0.38717290499E+02  0.38717290499E+02  0.00000000000E+00 0.  1.
         13   -1    0    0    0    0 -0.00000000000E+00 -0.00000000000E+00 -0.10000000000E+04  0.10000000000E+04  0.00000000000E+00 0.  1.
    9000005    2    1    2  501    0  0.43223325148E+02 -0.81467905167E+01 -0.92573913617E+03  0.98216667921E+03  0.32515198211E+03 0.  0.
         13    1    3    3    0    0  0.13494150424E+03 -0.60239002923E+02 -0.81855099912E+03  0.83178343648E+03  0.00000000000E+00 0.  1.
          1    1    3    3  501    0 -0.91718179090E+02  0.52092212406E+02 -0.10718813705E+03  0.15038324273E+03  0.00000000000E+00 0.  1.
         21    1    1    2  502  501 -0.43223325148E+02  0.81467905167E+01 -0.35543573329E+02  0.56550611292E+02  0.00000000000E+00 0. -1.
<mgrwt>
<rscale>  1 0.30000000E+03</rscale>
<asrwt>0</asrwt>
<pdfrwt beam="1">  1        1 0.14079044E+00 0.30000000E+03</pdfrwt>
<pdfrwt beam="2">0</pdfrwt>
<totfact> 0.20040307E+01</totfact>
</mgrwt>
</event>
<event>
 6    1  0.1940992E-004  0.3000000E+03  0.7818608E-02  0.1093470E+00
          1   -1    0    0  502    0  0.00000000000E+00  0.00000000000E+00  0.57338264103E+02  0.57338264103E+02  0.00000000000E+00 0.  1.
         13   -1    0    0    0    0 -0.00000000000E+00 -0.00000000000E+00 -0.10000000000E+04  0.10000000000E+04  0.00000000000E+00 0.  1.
    9000005    2    1    2  501    0  0.10714186701E+03 -0.51971783315E+02 -0.80210398794E+03  0.87311848657E+03  0.32370455385E+03 0.  0.
         13    1    3    3    0    0  0.10782113445E+03  0.95422032967E+02 -0.63129341313E+03  0.64750454429E+03  0.00000000000E+00 0.  1.
          3    1    3    3  501    0 -0.67926744390E+00 -0.14739381628E+03 -0.17081057481E+03  0.22561394228E+03  0.00000000000E+00 0.  1.
         21    1    1    2  502  501 -0.10714186701E+03  0.51971783315E+02 -0.14055774795E+03  0.18421977754E+03  0.00000000000E+00 0.  1.
<mgrwt>
<rscale>  1 0.30000000E+03</rscale>
<asrwt>0</asrwt>
<pdfrwt beam="1">  1        1 0.20850322E+00 0.30000000E+03</pdfrwt>
<pdfrwt beam="2">0</pdfrwt>
<totfact> 0.93358213E+00</totfact>
</mgrwt>
</event>
<event>
 6    1  0.1940992E-004  0.3000000E+03  0.7818608E-02  0.1093470E+00
          1   -1    0    0  502    0  0.00000000000E+00  0.00000000000E+00  0.22263806909E+02  0.22263806909E+02  0.00000000000E+00 0.  1.
         13   -1    0    0    0    0 -0.00000000000E+00 -0.00000000000E+00 -0.10000000000E+04  0.10000000000E+04  0.00000000000E+00 0.  1.
    9000005    2    1    2  501    0 -0.17221773353E+01  0.21879998358E+02 -0.92596537624E+03  0.96603287503E+03  0.27445571120E+03 0.  0.
         13    1    3    3    0    0  0.95119025855E+02 -0.86289579739E+02 -0.38118673463E+03  0.40223978832E+03  0.00000000000E+00 0.  1.
          3    1    3    3  501    0 -0.96841203190E+02  0.10816957810E+03 -0.54477864161E+03  0.56379308671E+03  0.00000000000E+00 0.  1.
         21    1    1    2  502  501  0.17221773353E+01 -0.21879998358E+02 -0.51770816849E+02  0.56230931880E+02  0.00000000000E+00 0. -1.
<mgrwt>
<rscale>  1 0.30000000E+03</rscale>
<asrwt>0</asrwt>
<pdfrwt beam="1">  1        1 0.80959469E-01 0.30000000E+03</pdfrwt>
<pdfrwt beam="2">0</pdfrwt>
<totfact> 0.46197195E+01</totfact>
</mgrwt>
</event>
<event>
 6    1  0.1940992E-004  0.3000000E+03  0.7818608E-02  0.1093470E+00
          1   -1    0    0  502    0  0.00000000000E+00  0.00000000000E+00  0.67835957245E+02  0.67835957245E+02  0.00000000000E+00 0.  1.
         13   -1    0    0    0    0 -0.00000000000E+00 -0.00000000000E+00 -0.10000000000E+04  0.10000000000E+04  0.00000000000E+00 0.  1.
    9000005    2    1    2  501    0  0.19241162153E+02 -0.15742357084E+01 -0.97319102835E+03  0.10224937684E+04  0.31308150422E+03 0.  0.
         13    1    3    3    0    0 -0.94078803515E+02 -0.11772068190E+03 -0.50307476413E+03  0.52516016464E+03  0.00000000000E+00 0.  1.
          3    1    3    3  501    0  0.11331996567E+03  0.11614644619E+03 -0.47011626422E+03  0.49733360379E+03  0.00000000000E+00 0.  1.
         21    1    1    2  502  501 -0.19241162153E+02  0.15742357084E+01  0.41026985595E+02  0.45342188810E+02  0.00000000000E+00 0.  1.
<mgrwt>
<rscale>  1 0.30000000E+03</rscale>
<asrwt>0</asrwt>
<pdfrwt beam="1">  1        1 0.24667673E+00 0.30000000E+03</pdfrwt>
<pdfrwt beam="2">0</pdfrwt>
<totfact> 0.61826583E+00</totfact>
</mgrwt>
</event>
<event>
 6    1  0.1940992E-004  0.3000000E+03  0.7818608E-02  0.1093470E+00
          1   -1    0    0  502    0  0.00000000000E+00  0.00000000000E+00  0.44046916913E+02  0.44046916913E+02  0.00000000000E+00 0.  1.
         13   -1    0    0    0    0 -0.00000000000E+00 -0.00000000000E+00 -0.10000000000E+04  0.10000000000E+04  0.00000000000E+00 0.  1.
    9000005    2    1    2  501    0  0.52011842592E+02 -0.33556107261E+00 -0.94300580284E+03  0.99044676358E+03  0.29836136300E+03 0.  0.
         13    1    3    3    0    0 -0.41115553920E+02  0.13354221921E+03 -0.42617573393E+03  0.44849723441E+03  0.00000000000E+00 0.  1.
          3    1    3    3  501    0  0.93127396513E+02 -0.13387778029E+03 -0.51683006891E+03  0.54194952917E+03  0.00000000000E+00 0.  1.
         21    1    1    2  502  501 -0.52011842592E+02  0.33556107261E+00 -0.12947280245E+02  0.53600153328E+02  0.00000000000E+00 0.  1.
<mgrwt>
<rscale>  1 0.30000000E+03</rscale>
<asrwt>0</asrwt>
<pdfrwt beam="1">  1        1 0.16017094E+00 0.30000000E+03</pdfrwt>
<pdfrwt beam="2">0</pdfrwt>
<totfact> 0.15971789E+01</totfact>
</mgrwt>
</event>
<event>
 6    1  0.1940992E-004  0.3000000E+03  0.7818608E-02  0.1093470E+00
          1   -1    0    0  502    0  0.00000000000E+00  0.00000000000E+00  0.33850489000E+02  0.33850489000E+02  0.00000000000E+00 0.  1.
         13   -1    0    0    0    0 -0.00000000000E+00 -0.00000000000E+00 -0.10000000000E+04  0.10000000000E+04  0.00000000000E+00 0.  1.
    9000005    2    1    2  501    0 -0.27592508559E+01 -0.14117676125E+02 -0.96105590088E+03  0.10185905051E+04  0.33718133138E+03 0.  0.
         13    1    3    3    0    0  0.14346193585E+03  0.42665249639E+02 -0.25820333400E+03  0.29844700075E+03  0.00000000000E+00 0.  1.
          3    1    3    3  501    0 -0.14622118671E+03 -0.56782925764E+02 -0.70285256688E+03  0.72014350436E+03  0.00000000000E+00 0.  1.
         21    1    1    2  502  501  0.27592508559E+01  0.14117676125E+02 -0.50936101227E+01  0.15259983897E+02  0.00000000000E+00 0.  1.
<mgrwt>
<rscale>  1 0.30000000E+03</rscale>
<asrwt>0</asrwt>
<pdfrwt beam="1">  1        1 0.12309295E+00 0.30000000E+03</pdfrwt>
<pdfrwt beam="2">0</pdfrwt>
<totfact> 0.24976588E+01</totfact>
</mgrwt>
</event>
<event>
 6    1  0.1940992E-004  0.3000000E+03  0.7818608E-02  0.1093470E+00
          1   -1    0    0  502    0  0.00000000000E+00  0.00000000000E+00  0.29314952536E+02  0.29314952536E+02  0.00000000000E+00 0.  1.
         13   -1    0    0    0    0 -0.00000000000E+00 -0.00000000000E+00 -0.10000000000E+04  0.10000000000E+04  0.00000000000E+00 0.  1.
    9000005    2    1    2  501    0 -0.47059983133E+01 -0.17731274086E+02 -0.95330150125E+03  0.10040418012E+04  0.31461030135E+03 0.  0.
         13    1    3    3    0    0 -0.96836135559E+01  0.42189301900E+01  0.24135514332E+02  0.26345678878E+02  0.00000000000E+00 0.  1.
          1    1    3    3  501    0  0.49776152426E+01 -0.21950204276E+02 -0.97743701558E+03  0.97769612229E+03  0.00000000000E+00 0.  1.
         21    1    1    2  502  501  0.47059983133E+01  0.17731274086E+02 -0.17383546218E+02  0.25273151366E+02  0.00000000000E+00 0.  1.
<mgrwt>
<rscale>  1 0.30000000E+03</rscale>
<asrwt>0</asrwt>
<pdfrwt beam="1">  1        1 0.10660005E+00 0.30000000E+03</pdfrwt>
<pdfrwt beam="2">0</pdfrwt>
<totfact> 0.31143432E+01</totfact>
</mgrwt>
</event>
<event>
 6    1  0.1940992E-004  0.3000000E+03  0.7818608E-02  0.1093470E+00
          1   -1    0    0  502    0  0.00000000000E+00  0.00000000000E+00  0.35978843717E+02  0.35978843717E+02  0.00000000000E+00 0.  1.
         13   -1    0    0    0    0 -0.00000000000E+00 -0.00000000000E+00 -0.10000000000E+04  0.10000000000E+04  0.00000000000E+00 0.  1.
    9000005    2    1    2  501    0 -0.95600954883E+01  0.72640741402E+01 -0.97088736966E+03  0.10221474633E+04  0.31940411692E+03 0.  0.
         13    1    3    3    0    0  0.10565846735E+03 -0.76335931632E+02 -0.20349336024E+03  0.24166181710E+03  0.00000000000E+00 0.  1.
          3    1    3    3  501    0 -0.11521856284E+03  0.83600005773E+02 -0.76739400942E+03  0.78048564617E+03  0.00000000000E+00 0.  1.
         21    1    1    2  502  501  0.95600954883E+01 -0.72640741402E+01  0.68662133790E+01  0.13831380445E+02  0.00000000000E+00 0.  1.
<mgrwt>
<rscale>  1 0.30000000E+03</rscale>
<asrwt>0</asrwt>
<pdfrwt beam="1">  1        1 0.13083243E+00 0.30000000E+03</pdfrwt>
<pdfrwt beam="2">0</pdfrwt>
<totfact> 0.22642609E+01</totfact>
</mgrwt>
</event>
<event>
 6    1  0.1940992E-004  0.3000000E+03  0.7818608E-02  0.1093470E+00
          1   -1    0    0  502    0  0.00000000000E+00  0.00000000000E+00  0.37325321039E+02  0.37325321039E+02  0.00000000000E+00 0.  1.
         13   -1    0    0    0    0 -0.00000000000E+00 -0.00000000000E+00 -0.10000000000E+04  0.10000000000E+04  0.00000000000E+00 0.  1.
    9000005    2    1    2  501    0 -0.81045524003E+01  0.12451691190E+02 -0.96713856942E+03  0.10218122717E+04  0.32942765165E+03 0.  0.
         13    1    3    3    0    0 -0.52433453498E+02  0.14642726929E+03 -0.27966450183E+03  0.32000382158E+03  0.00000000000E+00 0.  1.
          3    1    3    3  501    0  0.44328901098E+02 -0.13397557810E+03 -0.68747406759E+03  0.70180845008E+03  0.00000000000E+00 0.  1.
         21    1    1    2  502  501  0.81045524003E+01 -0.12451691190E+02  0.44638904584E+01  0.15513049382E+02  0.00000000000E+00 0.  1.
<mgrwt>
<rscale>  1 0.30000000E+03</rscale>
<asrwt>0</asrwt>
<pdfrwt beam="1">  1        1 0.13572873E+00 0.30000000E+03</pdfrwt>
<pdfrwt beam="2">0</pdfrwt>
<totfact> 0.21311017E+01</totfact>
</mgrwt>
</event>
<event>
 6    1  0.1940992E-004  0.3000000E+03  0.7818608E-02  0.1093470E+00
          1   -1    0    0  502    0  0.00000000000E+00  0.00000000000E+00  0.38622394304E+02  0.38622394304E+02  0.00000000000E+00 0.  1.
         13   -1    0    0    0    0 -0.00000000000E+00 -0.00000000000E+00 -0.10000000000E+04  0.10000000000E+04  0.00000000000E+00 0.  1.
    9000005    2    1    2  501    0 -0.43806756768E+02  0.16338933431E+02 -0.91436353695E+03  0.97231767845E+03  0.32734537944E+03 0.  0.
         13    1    3    3    0    0 -0.17241322430E+02 -0.13536128750E+03 -0.20385651267E+03  0.24531086219E+03  0.00000000000E+00 0.  1.
          1    1    3    3  501    0 -0.26565434339E+02  0.15170022093E+03 -0.71050702428E+03  0.72700681626E+03  0.00000000000E+00 0.  1.
         21    1    1    2  502  501  0.43806756768E+02 -0.16338933431E+02 -0.47014068745E+02  0.66304715852E+02  0.00000000000E+00 0. -1.
<mgrwt>
<rscale>  1 0.30000000E+03</rscale>
<asrwt>0</asrwt>
<pdfrwt beam="1">  1        1 0.14044537E+00 0.30000000E+03</pdfrwt>
<pdfrwt beam="2">0</pdfrwt>
<totfact> 0.20123808E+01</totfact>
</mgrwt>
</event>
<event>
 6    1  0.1940992E-004  0.3000000E+03  0.7818608E-02  0.1093470E+00
          3   -1    0    0  502    0  0.00000000000E+00  0.00000000000E+00  0.41608203654E+02  0.41608203654E+02  0.00000000000E+00 0.  1.
         13   -1    0    0    0    0 -0.00000000000E+00 -0.00000000000E+00 -0.10000000000E+04  0.10000000000E+04  0.00000000000E+00 0.  1.
    9000005    2    1    2  501    0 -0.32584520538E+02 -0.12157045883E+02 -0.95011043159E+03  0.10058573191E+04  0.32837413031E+03 0.  0.
         13    1    3    3    0    0  0.90823571470E+01 -0.12157568835E+03 -0.82708745533E+03  0.83602439915E+03  0.00000000000E+00 0.  1.
          3    1    3    3  501    0 -0.41666877685E+02  0.10941864247E+03 -0.12302297626E+03  0.16983291996E+03  0.00000000000E+00 0.  1.
         21    1    1    2  502  501  0.32584520538E+02  0.12157045883E+02 -0.82813647608E+01  0.35750884543E+02  0.00000000000E+00 0.  1.
<mgrwt>
<rscale>  1 0.30000000E+03</rscale>
<asrwt>0</asrwt>
<pdfrwt beam="1">  1        3 0.15130288E+00 0.30000000E+03</pdfrwt>
<pdfrwt beam="2">0</pdfrwt>
<totfact> 0.94960692E-01</totfact>
</mgrwt>
</event>
<event>
 6    1  0.1940992E-004  0.3000000E+03  0.7818608E-02  0.1093470E+00
          1   -1    0    0  502    0  0.00000000000E+00  0.00000000000E+00  0.32246379505E+02  0.32246379505E+02  0.00000000000E+00 0.  1.
         13   -1    0    0    0    0 -0.00000000000E+00 -0.00000000000E+00 -0.10000000000E+04  0.10000000000E+04  0.00000000000E+00 0.  1.
    9000005    2    1    2  501    0 -0.12083651991E+02  0.82291999209E+00 -0.96730622103E+03  0.10201264781E+04  0.32377463509E+03 0.  0.
         13    1    3    3    0    0  0.67638868845E+02  0.91758574061E+02 -0.12496177169E+03  0.16914519466E+03  0.00000000000E+00 0.  1.
          3    1    3    3  501    0 -0.79722520836E+02 -0.90935654069E+02 -0.84234444934E+03  0.85098128348E+03  0.00000000000E+00 0.  1.
         21    1    1    2  502  501  0.12083651991E+02 -0.82291999209E+00 -0.44739946753E+00  0.12119901362E+02  0.00000000000E+00 0. -1.
<mgrwt>
<rscale>  1 0.30000000E+03</rscale>
<asrwt>0</asrwt>
<pdfrwt beam="1">  1        1 0.11725981E+00 0.30000000E+03</pdfrwt>
<pdfrwt beam="2">0</pdfrwt>
<totfact> 0.26946255E+01</totfact>
</mgrwt>
</event>
<event>
 6    1  0.1940992E-004  0.3000000E+03  0.7818608E-02  0.1093470E+00
          1   -1    0    0  502    0  0.00000000000E+00  0.00000000000E+00  0.27077519835E+02  0.27077519835E+02  0.00000000000E+00 0.  1.
         13   -1    0    0    0    0 -0.00000000000E+00 -0.00000000000E+00 -0.10000000000E+04  0.10000000000E+04  0.00000000000E+00 0.  1.
    9000005    2    1    2  501    0 -0.74569132670E+01  0.34857457757E+01 -0.95437941271E+03  0.10067895596E+04  0.32049555063E+03 0.  0.
         13    1    3    3    0    0  0.12158342624E+03  0.43892326966E+02 -0.75434475949E+03  0.76533984744E+03  0.00000000000E+00 0.  1.
          3    1    3    3  501    0 -0.12904033951E+03 -0.40406581190E+02 -0.20003465322E+03  0.24144971219E+03  0.00000000000E+00 0.  1.
         21    1    1    2  502  501  0.74569132670E+01 -0.34857457757E+01 -0.18543067453E+02  0.20287960214E+02  0.00000000000E+00 0. -1.
<mgrwt>
<rscale>  1 0.30000000E+03</rscale>
<asrwt>0</asrwt>
<pdfrwt beam="1">  1        1 0.98463916E-01 0.30000000E+03</pdfrwt>
<pdfrwt beam="2">0</pdfrwt>
<totfact> 0.35008575E+01</totfact>
</mgrwt>
</event>
<event>
 6    1  0.1940992E-004  0.3000000E+03  0.7818608E-02  0.1093470E+00
          1   -1    0    0  502    0  0.00000000000E+00  0.00000000000E+00  0.62558398529E+02  0.62558398529E+02  0.00000000000E+00 0.  1.
         13   -1    0    0    0    0 -0.00000000000E+00 -0.00000000000E+00 -0.10000000000E+04  0.10000000000E+04  0.00000000000E+00 0.  1.
    9000005    2    1    2  501    0 -0.25806978916E+02 -0.40424694620E+02 -0.95761816317E+03  0.10105271604E+04  0.31911195441E+03 0.  0.
         13    1    3    3    0    0 -0.42569108567E+02 -0.12560577835E+03 -0.89173635049E+03  0.90154459643E+03  0.00000000000E+00 0.  1.
          1    1    3    3  501    0  0.16762129651E+02  0.85181083730E+02 -0.65881812677E+02  0.10898256401E+03  0.00000000000E+00 0.  1.
         21    1    1    2  502  501  0.25806978916E+02  0.40424694620E+02  0.20176561696E+02  0.52031238096E+02  0.00000000000E+00 0.  1.
<mgrwt>
<rscale>  1 0.30000000E+03</rscale>
<asrwt>0</asrwt>
<pdfrwt beam="1">  1        1 0.22748557E+00 0.30000000E+03</pdfrwt>
<pdfrwt beam="2">0</pdfrwt>
<totfact> 0.76037856E+00</totfact>
</mgrwt>
</event>
<event>
 6    1  0.1940992E-004  0.3000000E+03  0.7818608E-02  0.1093470E+00
          1   -1    0    0  502    0  0.00000000000E+00  0.00000000000E+00  0.62022764048E+02  0.62022764048E+02  0.00000000000E+00 0.  1.
         13   -1    0    0    0    0 -0.00000000000E+00 -0.00000000000E+00 -0.10000000000E+04  0.10000000000E+04  0.00000000000E+00 0.  1.
    9000005    2    1    2  501    0  0.61008326222E+02 -0.26605605219E+02 -0.93820313388E+03  0.99546508134E+03  0.32603026494E+03 0.  0.
         13    1    3    3    0    0  0.11613495441E+03  0.57290085367E+02 -0.13897314892E+03  0.18995530432E+03  0.00000000000E+00 0.  1.
          1    1    3    3  501    0 -0.55126628183E+02 -0.83895690587E+02 -0.79922998495E+03  0.80550977702E+03  0.00000000000E+00 0.  1.
         21    1    1    2  502  501 -0.61008326222E+02  0.26605605219E+02  0.22589792388E+00  0.66557682707E+02  0.00000000000E+00 0.  1.
<mgrwt>
<rscale>  1 0.30000000E+03</rscale>
<asrwt>0</asrwt>
<pdfrwt beam="1">  1        1 0.22553780E+00 0.30000000E+03</pdfrwt>
<pdfrwt beam="2">0</pdfrwt>
<totfact> 0.77651996E+00</totfact>
</mgrwt>
</event>
<event>
 6    1  0.1940992E-004  0.3000000E+03  0.7818608E-02  0.1093470E+00
          3   -1    0    0  502    0  0.00000000000E+00  0.00000000000E+00  0.31203022682E+02  0.31203022682E+02  0.00000000000E+00 0.  1.
         13   -1    0    0    0    0 -0.00000000000E+00 -0.00000000000E+00 -0.10000000000E+04  0.10000000000E+04  0.00000000000E+00 0.  1.
    9000005    2    1    2  501    0 -0.18967822139E+01 -0.10851462441E+02 -0.96943004337E+03  0.10201688579E+04  0.31753509666E+03 0.  0.
         13    1    3    3    0    0 -0.43495612529E+02 -0.15574669455E+03 -0.40867857168E+03  0.43950776571E+03  0.00000000000E+00 0.  1.
          1    1    3    3  501    0  0.41598830315E+02  0.14489523211E+03 -0.56075147169E+03  0.58066109218E+03  0.00000000000E+00 0.  1.
         21    1    1    2  502  501  0.18967822139E+01  0.10851462441E+02  0.63306605443E+00  0.11034164785E+02  0.00000000000E+00 0. -1.
<mgrwt>
<rscale>  1 0.30000000E+03</rscale>
<asrwt>0</asrwt>
<pdfrwt beam="1">  1        3 0.11346578E+00 0.30000000E+03</pdfrwt>
<pdfrwt beam="2">0</pdfrwt>
<totfact> 0.27511843E+00</totfact>
</mgrwt>
</event>
<event>
 6    1  0.1940992E-004  0.3000000E+03  0.7818608E-02  0.1093470E+00
          1   -1    0    0  502    0  0.00000000000E+00  0.00000000000E+00  0.31678563161E+02  0.31678563161E+02  0.00000000000E+00 0.  1.
         13   -1    0    0    0    0 -0.00000000000E+00 -0.00000000000E+00 -0.10000000000E+04  0.10000000000E+04  0.00000000000E+00 0.  1.
    9000005    2    1    2  501    0 -0.36849155361E+01 -0.12902283371E+02 -0.95996534390E+03  0.10158712292E+04  0.33208559927E+03 0.  0.
         13    1    3    3    0    0 -0.58069677142E+02  0.95681368319E+01 -0.49672068188E+01  0.59061914881E+02  0.00000000000E+00 0.  1.
          1    1    3    3  501    0  0.54384761606E+02 -0.22470420203E+02 -0.95499813708E+03  0.95680931429E+03  0.00000000000E+00 0.  1.
         21    1    1    2  502  501  0.36849155361E+01  0.12902283371E+02 -0.83560929366E+01  0.15807333990E+02  0.00000000000E+00 0.  1.
<mgrwt>
<rscale>  1 0.30000000E+03</rscale>
<asrwt>0</asrwt>
<pdfrwt beam="1">  1        1 0.11519502E+00 0.30000000E+03</pdfrwt>
<pdfrwt beam="2">0</pdfrwt>
<totfact> 0.27694016E+01</totfact>
</mgrwt>
</event>
<event>
 6    1  0.1940992E-004  0.3000000E+03  0.7818608E-02  0.1093470E+00
          1   -1    0    0  502    0  0.00000000000E+00  0.00000000000E+00  0.27853829725E+02  0.27853829725E+02  0.00000000000E+00 0.  1.
         13   -1    0    0    0    0 -0.00000000000E+00 -0.00000000000E+00 -0.10000000000E+04  0.10000000000E+04  0.00000000000E+00 0.  1.
    9000005    2    1    2  501    0 -0.16604158473E+01  0.97411962773E+01 -0.95559937658E+03  0.10085809403E+04  0.32244022191E+03 0.  0.
         13    1    3    3    0    0  0.38250966765E+02  0.84050484182E+02 -0.90607282738E+03  0.91076648427E+03  0.00000000000E+00 0.  1.
          1    1    3    3  501    0 -0.39911382612E+02 -0.74309287904E+02 -0.49526549204E+02  0.97814456022E+02  0.00000000000E+00 0.  1.
         21    1    1    2  502  501  0.16604158473E+01 -0.97411962773E+01 -0.16546793691E+02  0.19272889434E+02  0.00000000000E+00 0.  1.
<mgrwt>
<rscale>  1 0.30000000E+03</rscale>
<asrwt>0</asrwt>
<pdfrwt beam="1">  1        1 0.10128687E+00 0.30000000E+03</pdfrwt>
<pdfrwt beam="2">0</pdfrwt>
<totfact> 0.33591762E+01</totfact>
</mgrwt>
</event>
<event>
 6    1  0.1940992E-004  0.3000000E+03  0.7818608E-02  0.1093470E+00
          1   -1    0    0  502    0  0.00000000000E+00  0.00000000000E+00  0.46487977523E+02  0.46487977523E+02  0.00000000000E+00 0.  1.
         13   -1    0    0    0    0 -0.00000000000E+00 -0.00000000000E+00 -0.10000000000E+04  0.10000000000E+04  0.00000000000E+00 0.  1.
    9000005    2    1    2  501    0  0.17736810550E+02  0.39859257946E+02 -0.94695809436E+03  0.10023709868E+04  0.32575237206E+03 0.  0.
         13    1    3    3    0    0 -0.29224845734E+02  0.16475467947E+03 -0.71917069245E+03  0.73837976739E+03  0.00000000000E+00 0.  1.
          3    1    3    3  501    0  0.46961656284E+02 -0.12489542153E+03 -0.22778740191E+03  0.26399121945E+03  0.00000000000E+00 0.  1.
         21    1    1    2  502  501 -0.17736810550E+02 -0.39859257946E+02 -0.65539281176E+01  0.44116990676E+02  0.00000000000E+00 0.  1.
<mgrwt>
<rscale>  1 0.30000000E+03</rscale>
<asrwt>0</asrwt>
<pdfrwt beam="1">  1        1 0.16904755E+00 0.30000000E+03</pdfrwt>
<pdfrwt beam="2">0</pdfrwt>
<totfact> 0.14441261E+01</totfact>
</mgrwt>
</event>
<event>
 6    1  0.1940992E-004  0.3000000E+03  0.7818608E-02  0.1093470E+00
          1   -1    0    0  502    0  0.00000000000E+00  0.00000000000E+00  0.33120439674E+02  0.33120439674E+02  0.00000000000E+00 0.  1.
         13   -1    0    0    0    0 -0.00000000000E+00 -0.00000000000E+00 -0.10000000000E+04  0.10000000000E+04  0.00000000000E+00 0.  1.
    9000005    2    1    2  501    0  0.82014751035E+01 -0.22553245096E+02 -0.94608626326E+03  0.10013671050E+04  0.32723225459E+03 0.  0.
         13    1    3    3    0    0  0.54096079126E+02  0.48353128170E+02 -0.25488845815E+02  0.76903134147E+02  0.00000000000E+00 0.  1.
          3    1    3    3  501    0 -0.45894604022E+02 -0.70906373267E+02 -0.92059741745E+03  0.92446397088E+03  0.00000000000E+00 0.  1.
         21    1    1    2  502  501 -0.82014751035E+01  0.22553245096E+02 -0.20793297061E+02  0.31753334643E+02  0.00000000000E+00 0.  1.
<mgrwt>
<rscale>  1 0.30000000E+03</rscale>
<asrwt>0</asrwt>
<pdfrwt beam="1">  1        1 0.12043822E+00 0.30000000E+03</pdfrwt>
<pdfrwt beam="2">0</pdfrwt>
<totfact> 0.25848272E+01</totfact>
</mgrwt>
</event>
<event>
 6    1  0.1940992E-004  0.3000000E+03  0.7818608E-02  0.1093470E+00
          1   -1    0    0  502    0  0.00000000000E+00  0.00000000000E+00  0.45135316303E+02  0.45135316303E+02  0.00000000000E+00 0.  1.
         13   -1    0    0    0    0 -0.00000000000E+00 -0.00000000000E+00 -0.10000000000E+04  0.10000000000E+04  0.00000000000E+00 0.  1.
    9000005    2    1    2  501    0 -0.66359897477E+01  0.29714449994E+02 -0.96056161773E+03  0.10141604885E+04  0.32390722460E+03 0.  0.
         13    1    3    3    0    0 -0.10213215940E+03  0.10591663948E+03 -0.22713786308E+03  0.27063059943E+03  0.00000000000E+00 0.  1.
          3    1    3    3  501    0  0.95496169656E+02 -0.76202189491E+02 -0.73342375464E+03  0.74352988910E+03  0.00000000000E+00 0.  1.
         21    1    1    2  502  501  0.66359897477E+01 -0.29714449994E+02  0.56969340289E+01  0.30974827775E+02  0.00000000000E+00 0.  1.
<mgrwt>
<rscale>  1 0.30000000E+03</rscale>
<asrwt>0</asrwt>
<pdfrwt beam="1">  1        1 0.16412877E+00 0.30000000E+03</pdfrwt>
<pdfrwt beam="2">0</pdfrwt>
<totfact> 0.15267502E+01</totfact>
</mgrwt>
</event>
<event>
 6    1  0.1940992E-004  0.3000000E+03  0.7818608E-02  0.1093470E+00
          1   -1    0    0  502    0  0.00000000000E+00  0.00000000000E+00  0.76031076870E+02  0.76031076870E+02  0.00000000000E+00 0.  1.
         13   -1    0    0    0    0 -0.00000000000E+00 -0.00000000000E+00 -0.10000000000E+04  0.10000000000E+04  0.00000000000E+00 0.  1.
    9000005    2    1    2  501    0  0.13576212025E+02  0.48991415348E+01 -0.97153461298E+03  0.10263238342E+04  0.33053410314E+03 0.  0.
         13    1    3    3    0    0  0.85796549034E+02 -0.77790021497E+02 -0.86709628720E+03  0.87479615142E+03  0.00000000000E+00 0.  1.
          1    1    3    3  501    0 -0.72220337009E+02  0.82689163032E+02 -0.10443832578E+03  0.15152768279E+03  0.00000000000E+00 0.  1.
         21    1    1    2  502  501 -0.13576212025E+02 -0.48991415348E+01  0.47565689854E+02  0.49707242651E+02  0.00000000000E+00 0.  1.
<mgrwt>
<rscale>  1 0.30000000E+03</rscale>
<asrwt>0</asrwt>
<pdfrwt beam="1">  1        1 0.27647723E+00 0.30000000E+03</pdfrwt>
<pdfrwt beam="2">0</pdfrwt>
<totfact> 0.44846197E+00</totfact>
</mgrwt>
</event>
<event>
 6    1  0.1940992E-004  0.3000000E+03  0.7818608E-02  0.1093470E+00
          1   -1    0    0  502    0  0.00000000000E+00  0.00000000000E+00  0.27598749702E+02  0.27598749702E+02  0.00000000000E+00 0.  1.
         13   -1    0    0    0    0 -0.00000000000E+00 -0.00000000000E+00 -0.10000000000E+04  0.10000000000E+04  0.00000000000E+00 0.  1.
    9000005    2    1    2  501    0 -0.63208536821E+01  0.48086084712E+01 -0.94818031417E+03  0.10021089546E+04  0.32421192580E+03 0.  0.
         13    1    3    3    0    0 -0.15363590673E+03  0.55757028897E+02 -0.57252974345E+03  0.59540166715E+03  0.00000000000E+00 0.  1.
          1    1    3    3  501    0  0.14731505304E+03 -0.50948420425E+02 -0.37565057072E+03  0.40670728747E+03  0.00000000000E+00 0.  1.
         21    1    1    2  502  501  0.63208536821E+01 -0.48086084712E+01 -0.24220936123E+02  0.25489795083E+02  0.00000000000E+00 0.  1.
<mgrwt>
<rscale>  1 0.30000000E+03</rscale>
<asrwt>0</asrwt>
<pdfrwt beam="1">  1        1 0.10035930E+00 0.30000000E+03</pdfrwt>
<pdfrwt beam="2">0</pdfrwt>
<totfact> 0.34047835E+01</totfact>
</mgrwt>
</event>
<event>
 6    1  0.1940992E-004  0.3000000E+03  0.7818608E-02  0.1093470E+00
          1   -1    0    0  502    0  0.00000000000E+00  0.00000000000E+00  0.20253855254E+02  0.20253855254E+02  0.00000000000E+00 0.  1.
         13   -1    0    0    0    0 -0.00000000000E+00 -0.00000000000E+00 -0.10000000000E+04  0.10000000000E+04  0.00000000000E+00 0.  1.
    9000005    2    1    2  501    0 -0.19156708644E+02 -0.45791132103E+01 -0.94091295342E+03  0.97671118065E+03  0.26126537603E+03 0.  0.
         13    1    3    3    0    0  0.78098961405E+02 -0.99221541697E+02 -0.46099565123E+03  0.47797630963E+03  0.00000000000E+00 0.  1.
          1    1    3    3  501    0 -0.97255670049E+02  0.94642428487E+02 -0.47991730219E+03  0.49873487102E+03  0.00000000000E+00 0.  1.
         21    1    1    2  502  501  0.19156708644E+02  0.45791132103E+01 -0.38833191321E+02  0.43542674609E+02  0.00000000000E+00 0.  1.
<mgrwt>
<rscale>  1 0.30000000E+03</rscale>
<asrwt>0</asrwt>
<pdfrwt beam="1">  1        1 0.73650538E-01 0.30000000E+03</pdfrwt>
<pdfrwt beam="2">0</pdfrwt>
<totfact> 0.52615015E+01</totfact>
</mgrwt>
</event>
<event>
 6    1  0.1940992E-004  0.3000000E+03  0.7818608E-02  0.1093470E+00
          1   -1    0    0  502    0  0.00000000000E+00  0.00000000000E+00  0.29197827728E+02  0.29197827728E+02  0.00000000000E+00 0.  1.
         13   -1    0    0    0    0 -0.00000000000E+00 -0.00000000000E+00 -0.10000000000E+04  0.10000000000E+04  0.00000000000E+00 0.  1.
    9000005    2    1    2  501    0  0.19069170421E+02  0.10936419114E+02 -0.94515622833E+03  0.99541983246E+03  0.31153989854E+03 0.  0.
         13    1    3    3    0    0  0.12278014533E+03  0.78517826323E+02 -0.25041917103E+03  0.28974087450E+03  0.00000000000E+00 0.  1.
          3    1    3    3  501    0 -0.10371097491E+03 -0.67581407209E+02 -0.69473705730E+03  0.70567895796E+03  0.00000000000E+00 0.  1.
         21    1    1    2  502  501 -0.19069170421E+02 -0.10936419114E+02 -0.25645943941E+02  0.33777995266E+02  0.00000000000E+00 0. -1.
<mgrwt>
<rscale>  1 0.30000000E+03</rscale>
<asrwt>0</asrwt>
<pdfrwt beam="1">  1        1 0.10617414E+00 0.30000000E+03</pdfrwt>
<pdfrwt beam="2">0</pdfrwt>
<totfact> 0.31329994E+01</totfact>
</mgrwt>
</event>
<event>
 6    1  0.1940992E-004  0.3000000E+03  0.7818608E-02  0.1093470E+00
          1   -1    0    0  502    0  0.00000000000E+00  0.00000000000E+00  0.33065616625E+02  0.33065616625E+02  0.00000000000E+00 0.  1.
         13   -1    0    0    0    0 -0.00000000000E+00 -0.00000000000E+00 -0.10000000000E+04  0.10000000000E+04  0.00000000000E+00 0.  1.
    9000005    2    1    2  501    0  0.11089761489E+02  0.22388878489E+01 -0.96110629113E+03  0.10203391840E+04  0.34240144871E+03 0.  0.
         13    1    3    3    0    0  0.41185632065E+02  0.15995780830E+03 -0.32869339964E+03  0.36786153332E+03  0.00000000000E+00 0.  1.
          1    1    3    3  501    0 -0.30095870576E+02 -0.15771892045E+03 -0.63241289149E+03  0.65247765066E+03  0.00000000000E+00 0.  1.
         21    1    1    2  502  501 -0.11089761489E+02 -0.22388878489E+01 -0.58280922425E+01  0.12726432645E+02  0.00000000000E+00 0.  1.
<mgrwt>
<rscale>  1 0.30000000E+03</rscale>
<asrwt>0</asrwt>
<pdfrwt beam="1">  1        1 0.12023886E+00 0.30000000E+03</pdfrwt>
<pdfrwt beam="2">0</pdfrwt>
<totfact> 0.25915347E+01</totfact>
</mgrwt>
</event>
<event>
 6    1  0.1940992E-004  0.3000000E+03  0.7818608E-02  0.1093470E+00
          1   -1    0    0  502    0  0.00000000000E+00  0.00000000000E+00  0.31496381060E+02  0.31496381060E+02  0.00000000000E+00 0.  1.
         13   -1    0    0    0    0 -0.00000000000E+00 -0.00000000000E+00 -0.10000000000E+04  0.10000000000E+04  0.00000000000E+00 0.  1.
    9000005    2    1    2  501    0 -0.45689504028E+01 -0.17451407919E+02 -0.95575372374E+03  0.10094059584E+04  0.32420638711E+03 0.  0.
         13    1    3    3    0    0 -0.73755421091E+02  0.10254017842E+03 -0.17138548700E+03  0.21290217351E+03  0.00000000000E+00 0.  1.
          3    1    3    3  501    0  0.69186470688E+02 -0.11999158634E+03 -0.78436823674E+03  0.79650378488E+03  0.00000000000E+00 0.  1.
         21    1    1    2  502  501  0.45689504028E+01  0.17451407919E+02 -0.12749895202E+02  0.22090422672E+02  0.00000000000E+00 0.  1.
<mgrwt>
<rscale>  1 0.30000000E+03</rscale>
<asrwt>0</asrwt>
<pdfrwt beam="1">  1        1 0.11453254E+00 0.30000000E+03</pdfrwt>
<pdfrwt beam="2">0</pdfrwt>
<totfact> 0.27940063E+01</totfact>
</mgrwt>
</event>
<event>
 6    1  0.1940992E-004  0.3000000E+03  0.7818608E-02  0.1093470E+00
          1   -1    0    0  502    0  0.00000000000E+00  0.00000000000E+00  0.28311847187E+02  0.28311847187E+02  0.00000000000E+00 0.  1.
         13   -1    0    0    0    0 -0.00000000000E+00 -0.00000000000E+00 -0.10000000000E+04  0.10000000000E+04  0.00000000000E+00 0.  1.
    9000005    2    1    2  501    0  0.55561646288E+01  0.10607399688E+02 -0.95167924252E+03  0.10049935200E+04  0.32276184196E+03 0.  0.
         13    1    3    3    0    0 -0.69585184586E+02 -0.31058485825E+02 -0.90306369180E+03  0.90627300462E+03  0.00000000000E+00 0.  1.
          3    1    3    3  501    0  0.75141349215E+02  0.41665885513E+02 -0.48615550722E+02  0.98720515342E+02  0.00000000000E+00 0.  1.
         21    1    1    2  502  501 -0.55561646288E+01 -0.10607399688E+02 -0.20008910289E+02  0.23318327222E+02  0.00000000000E+00 0. -1.
<mgrwt>
<rscale>  1 0.30000000E+03</rscale>
<asrwt>0</asrwt>
<pdfrwt beam="1">  1        1 0.10295239E+00 0.30000000E+03</pdfrwt>
<pdfrwt beam="2">0</pdfrwt>
<totfact> 0.32795029E+01</totfact>
</mgrwt>
</event>
<event>
 6    1  0.1940992E-004  0.3000000E+03  0.7818608E-02  0.1093470E+00
          1   -1    0    0  502    0  0.00000000000E+00  0.00000000000E+00  0.38566956165E+02  0.38566956165E+02  0.00000000000E+00 0.  1.
         13   -1    0    0    0    0 -0.00000000000E+00 -0.00000000000E+00 -0.10000000000E+04  0.10000000000E+04  0.00000000000E+00 0.  1.
    9000005    2    1    2  501    0  0.67274835839E+01 -0.87508348567E+01 -0.97570494670E+03  0.10205246903E+04  0.29891246942E+03 0.  0.
         13    1    3    3    0    0 -0.10633475769E+03 -0.60493172002E+02 -0.19656735423E+03  0.23152803134E+03  0.00000000000E+00 0.  1.
          3    1    3    3  501    0  0.11306224127E+03  0.51742337145E+02 -0.77913759247E+03  0.78899665896E+03  0.00000000000E+00 0.  1.
         21    1    1    2  502  501 -0.67274835839E+01  0.87508348567E+01  0.14271902860E+02  0.18042265859E+02  0.00000000000E+00 0.  1.
<mgrwt>
<rscale>  1 0.30000000E+03</rscale>
<asrwt>0</asrwt>
<pdfrwt beam="1">  1        1 0.14024377E+00 0.30000000E+03</pdfrwt>
<pdfrwt beam="2">0</pdfrwt>
<totfact> 0.20172794E+01</totfact>
</mgrwt>
</event>
<event>
 6    1  0.1940992E-004  0.3000000E+03  0.7818608E-02  0.1093470E+00
          1   -1    0    0  502    0  0.00000000000E+00  0.00000000000E+00  0.31564095509E+02  0.31564095509E+02  0.00000000000E+00 0.  1.
         13   -1    0    0    0    0 -0.00000000000E+00 -0.00000000000E+00 -0.10000000000E+04  0.10000000000E+04  0.00000000000E+00 0.  1.
    9000005    2    1    2  501    0 -0.13604602155E+02  0.14921461391E-01 -0.96111520279E+03  0.10161148853E+04  0.32948739231E+03 0.  0.
         13    1    3    3    0    0 -0.62166477260E+02  0.28442586960E+02 -0.95727533936E+03  0.95971335669E+03  0.00000000000E+00 0.  1.
          1    1    3    3  501    0  0.48561875105E+02 -0.28427665498E+02 -0.38398634219E+01  0.56401528618E+02  0.00000000000E+00 0.  1.
         21    1    1    2  502  501  0.13604602155E+02 -0.14921461391E-01 -0.73207017046E+01  0.15449210203E+02  0.00000000000E+00 0.  1.
<mgrwt>
<rscale>  1 0.30000000E+03</rscale>
<asrwt>0</asrwt>
<pdfrwt beam="1">  1        1 0.11477877E+00 0.30000000E+03</pdfrwt>
<pdfrwt beam="2">0</pdfrwt>
<totfact> 0.27848254E+01</totfact>
</mgrwt>
</event>
<event>
 6    1  0.1940992E-004  0.3000000E+03  0.7818608E-02  0.1093470E+00
          1   -1    0    0  502    0  0.00000000000E+00  0.00000000000E+00  0.33415895547E+02  0.33415895547E+02  0.00000000000E+00 0.  1.
         13   -1    0    0    0    0 -0.00000000000E+00 -0.00000000000E+00 -0.10000000000E+04  0.10000000000E+04  0.00000000000E+00 0.  1.
    9000005    2    1    2  501    0  0.59213203009E+00  0.11254511238E+02 -0.96131532311E+03  0.10209750475E+04  0.34370900847E+03 0.  0.
         13    1    3    3    0    0  0.11233585013E+03 -0.12239006259E+03 -0.54272668432E+03  0.56758340755E+03  0.00000000000E+00 0.  1.
          1    1    3    3  501    0 -0.11174371810E+03  0.13364457383E+03 -0.41858863879E+03  0.45339163994E+03  0.00000000000E+00 0.  1.
         21    1    1    2  502  501 -0.59213203009E+00 -0.11254511238E+02 -0.52687813413E+01  0.12440848057E+02  0.00000000000E+00 0. -1.
<mgrwt>
<rscale>  1 0.30000000E+03</rscale>
<asrwt>0</asrwt>
<pdfrwt beam="1">  1        1 0.12151260E+00 0.30000000E+03</pdfrwt>
<pdfrwt beam="2">0</pdfrwt>
<totfact> 0.25490734E+01</totfact>
</mgrwt>
</event>
<event>
 6    1  0.1940992E-004  0.3000000E+03  0.7818608E-02  0.1093470E+00
          1   -1    0    0  502    0  0.00000000000E+00  0.00000000000E+00  0.59445854526E+02  0.59445854526E+02  0.00000000000E+00 0.  1.
         13   -1    0    0    0    0 -0.00000000000E+00 -0.00000000000E+00 -0.10000000000E+04  0.10000000000E+04  0.00000000000E+00 0.  1.
    9000005    2    1    2  501    0  0.69535589417E+02 -0.45964561338E+02 -0.91192241690E+03  0.97131121335E+03  0.32387503707E+03 0.  0.
         13    1    3    3    0    0  0.61793465994E+02 -0.18457433708E+03 -0.56809955514E+03  0.60051912783E+03  0.00000000000E+00 0.  1.
          3    1    3    3  501    0  0.77421234223E+01  0.13860977575E+03 -0.34382286176E+03  0.37079208551E+03  0.00000000000E+00 0.  1.
         21    1    1    2  502  501 -0.69535589417E+02  0.45964561338E+02 -0.28631728576E+02  0.88134641179E+02  0.00000000000E+00 0. -1.
<mgrwt>
<rscale>  1 0.30000000E+03</rscale>
<asrwt>0</asrwt>
<pdfrwt beam="1">  1        1 0.21616720E+00 0.30000000E+03</pdfrwt>
<pdfrwt beam="2">0</pdfrwt>
<totfact> 0.85917822E+00</totfact>
</mgrwt>
</event>
<event>
 6    1  0.1940992E-004  0.3000000E+03  0.7818608E-02  0.1093470E+00
          3   -1    0    0  502    0  0.00000000000E+00  0.00000000000E+00  0.48434849134E+02  0.48434849134E+02  0.00000000000E+00 0.  1.
         13   -1    0    0    0    0 -0.00000000000E+00 -0.00000000000E+00 -0.10000000000E+04  0.10000000000E+04  0.00000000000E+00 0.  1.
    9000005    2    1    2  501    0 -0.48915854827E+02 -0.77926783954E+01 -0.94123068709E+03  0.99783556227E+03  0.32757764929E+03 0.  0.
         13    1    3    3    0    0 -0.18304285364E+03  0.24345012508E+02 -0.64784688109E+03  0.67364897925E+03  0.00000000000E+00 0.  1.
          3    1    3    3  501    0  0.13412699881E+03 -0.32137690903E+02 -0.29338380600E+03  0.32418658302E+03  0.00000000000E+00 0.  1.
         21    1    1    2  502  501  0.48915854827E+02  0.77926783954E+01 -0.10334463775E+02  0.50599286868E+02  0.00000000000E+00 0.  1.
<mgrwt>
<rscale>  1 0.30000000E+03</rscale>
<asrwt>0</asrwt>
<pdfrwt beam="1">  1        3 0.17612710E+00 0.30000000E+03</pdfrwt>
<pdfrwt beam="2">0</pdfrwt>
<totfact> 0.38416590E-01</totfact>
</mgrwt>
</event>
<event>
 6    1  0.1940992E-004  0.3000000E+03  0.7818608E-02  0.1093470E+00
          1   -1    0    0  502    0  0.00000000000E+00  0.00000000000E+00  0.89004608841E+02  0.89004608841E+02  0.00000000000E+00 0.  1.
         13   -1    0    0    0    0 -0.00000000000E+00 -0.00000000000E+00 -0.10000000000E+04  0.10000000000E+04  0.00000000000E+00 0.  1.
    9000005    2    1    2  501    0 -0.11230536418E+02 -0.32955049375E+02 -0.96754813049E+03  0.10225939730E+04  0.32914569501E+03 0.  0.
         13    1    3    3    0    0  0.20334871931E+02 -0.64966505262E+02 -0.15928897570E+02  0.69913400720E+02  0.00000000000E+00 0.  1.
          3    1    3    3  501    0 -0.31565408348E+02  0.32011455887E+02 -0.95161923292E+03  0.95268057227E+03  0.00000000000E+00 0.  1.
         21    1    1    2  502  501  0.11230536418E+02  0.32955049375E+02  0.56552739336E+02  0.66410635849E+02  0.00000000000E+00 0.  1.
<mgrwt>
<rscale>  1 0.30000000E+03</rscale>
<asrwt>0</asrwt>
<pdfrwt beam="1">  1        1 0.32365381E+00 0.30000000E+03</pdfrwt>
<pdfrwt beam="2">0</pdfrwt>
<totfact> 0.26722965E+00</totfact>
</mgrwt>
</event>
<event>
 6    1  0.1940992E-004  0.3000000E+03  0.7818608E-02  0.1093470E+00
          1   -1    0    0  502    0  0.00000000000E+00  0.00000000000E+00  0.84202804590E+02  0.84202804590E+02  0.00000000000E+00 0.  1.
         13   -1    0    0    0    0 -0.00000000000E+00 -0.00000000000E+00 -0.10000000000E+04  0.10000000000E+04  0.00000000000E+00 0.  1.
    9000005    2    1    2  501    0  0.10992739418E+03 -0.80627380489E+02 -0.59099078139E+03  0.73194719701E+03  0.40974600554E+03 0.  0.
         13    1    3    3    0    0  0.68071337261E+02 -0.13300903425E+03 -0.12889845613E+02  0.14997085807E+03  0.00000000000E+00 0.  1.
          1    1    3    3  501    0  0.41856056924E+02  0.52381653765E+02 -0.57810093577E+03  0.58197633895E+03  0.00000000000E+00 0.  1.
         21    1    1    2  502  501 -0.10992739418E+03  0.80627380489E+02 -0.32480641402E+03  0.35225560758E+03  0.00000000000E+00 0.  1.
<mgrwt>
<rscale>  1 0.30000000E+03</rscale>
<asrwt>0</asrwt>
<pdfrwt beam="1">  1        1 0.30619266E+00 0.30000000E+03</pdfrwt>
<pdfrwt beam="2">0</pdfrwt>
<totfact> 0.32464043E+00</totfact>
</mgrwt>
</event>
<event>
 6    1  0.1940992E-004  0.3000000E+03  0.7818608E-02  0.1093470E+00
          1   -1    0    0  502    0  0.00000000000E+00  0.00000000000E+00  0.42742753250E+02  0.42742753250E+02  0.00000000000E+00 0.  1.
         13   -1    0    0    0    0 -0.00000000000E+00 -0.00000000000E+00 -0.10000000000E+04  0.10000000000E+04  0.00000000000E+00 0.  1.
    9000005    2    1    2  501    0 -0.80442488028E+00  0.17860847630E+02 -0.96770922483E+03  0.10220328324E+04  0.32828388574E+03 0.  0.
         13    1    3    3    0    0 -0.27809251808E+02 -0.30318696002E+02  0.10343957388E+02  0.42421401059E+02  0.00000000000E+00 0.  1.
          3    1    3    3  501    0  0.27004826928E+02  0.48179543632E+02 -0.97805318221E+03  0.97961143130E+03  0.00000000000E+00 0.  1.
         21    1    1    2  502  501  0.80442488028E+00 -0.17860847630E+02  0.10451978075E+02  0.20709920887E+02  0.00000000000E+00 0.  1.
<mgrwt>
<rscale>  1 0.30000000E+03</rscale>
<asrwt>0</asrwt>
<pdfrwt beam="1">  1        1 0.15542852E+00 0.30000000E+03</pdfrwt>
<pdfrwt beam="2">0</pdfrwt>
<totfact> 0.16866228E+01</totfact>
</mgrwt>
</event>
<event>
 6    1  0.1940992E-004  0.3000000E+03  0.7818608E-02  0.1093470E+00
          1   -1    0    0  502    0  0.00000000000E+00  0.00000000000E+00  0.18196608110E+02  0.18196608110E+02  0.00000000000E+00 0.  1.
         13   -1    0    0    0    0 -0.00000000000E+00 -0.00000000000E+00 -0.10000000000E+04  0.10000000000E+04  0.00000000000E+00 0.  1.
    9000005    2    1    2  501    0  0.83398666030E+01 -0.53376407435E+01 -0.96859503234E+03  0.10016888964E+04  0.25515929285E+03 0.  0.
         13    1    3    3    0    0 -0.85606339757E+02  0.54775733608E+02 -0.74416653499E+03  0.75107433600E+03  0.00000000000E+00 0.  1.
          1    1    3    3  501    0  0.93946206360E+02 -0.60113374352E+02 -0.22442849735E+03  0.25061456041E+03  0.00000000000E+00 0.  1.
         21    1    1    2  502  501 -0.83398666030E+01  0.53376407435E+01 -0.13208359548E+02  0.16507711701E+02  0.00000000000E+00 0.  1.
<mgrwt>
<rscale>  1 0.30000000E+03</rscale>
<asrwt>0</asrwt>
<pdfrwt beam="1">  1        1 0.66169624E-01 0.30000000E+03</pdfrwt>
<pdfrwt beam="2">0</pdfrwt>
<totfact> 0.60839659E+01</totfact>
</mgrwt>
</event>
<event>
 6    1  0.1940992E-004  0.3000000E+03  0.7818608E-02  0.1093470E+00
          1   -1    0    0  502    0  0.00000000000E+00  0.00000000000E+00  0.39642509085E+02  0.39642509085E+02  0.00000000000E+00 0.  1.
         13   -1    0    0    0    0 -0.00000000000E+00 -0.00000000000E+00 -0.10000000000E+04  0.10000000000E+04  0.00000000000E+00 0.  1.
    9000005    2    1    2  501    0 -0.17970454407E+02 -0.35395546128E+02 -0.93756596116E+03  0.99386876393E+03  0.32736738760E+03 0.  0.
         13    1    3    3    0    0 -0.71663949586E+01 -0.95901054323E+02 -0.58305833233E+02  0.11246305894E+03  0.00000000000E+00 0.  1.
          3    1    3    3  501    0 -0.10804059449E+02  0.60505508195E+02 -0.87926012793E+03  0.88140570499E+03  0.00000000000E+00 0.  1.
         21    1    1    2  502  501  0.17970454407E+02  0.35395546128E+02 -0.22791529755E+02  0.45773745159E+02  0.00000000000E+00 0.  1.
<mgrwt>
<rscale>  1 0.30000000E+03</rscale>
<asrwt>0</asrwt>
<pdfrwt beam="1">  1        1 0.14415488E+00 0.30000000E+03</pdfrwt>
<pdfrwt beam="2">0</pdfrwt>
<totfact> 0.19248779E+01</totfact>
</mgrwt>
</event>
<event>
 6    1  0.1940992E-004  0.3000000E+03  0.7818608E-02  0.1093470E+00
          1   -1    0    0  502    0  0.00000000000E+00  0.00000000000E+00  0.27827133068E+02  0.27827133068E+02  0.00000000000E+00 0.  1.
         13   -1    0    0    0    0 -0.00000000000E+00 -0.00000000000E+00 -0.10000000000E+04  0.10000000000E+04  0.00000000000E+00 0.  1.
    9000005    2    1    2  501    0 -0.79593138290E+01  0.28784973182E+01 -0.93869125693E+03  0.99329230092E+03  0.32467935382E+03 0.  0.
         13    1    3    3    0    0  0.89587664359E+01  0.89753110825E+00  0.26480985148E+02  0.27969762826E+02  0.00000000000E+00 0.  1.
          1    1    3    3  501    0 -0.16918080265E+02  0.19809662099E+01 -0.96517224208E+03  0.96532253809E+03  0.00000000000E+00 0.  1.
         21    1    1    2  502  501  0.79593138290E+01 -0.28784973182E+01 -0.33481609998E+02  0.34534832148E+02  0.00000000000E+00 0.  1.
<mgrwt>
<rscale>  1 0.30000000E+03</rscale>
<asrwt>0</asrwt>
<pdfrwt beam="1">  1        1 0.10118979E+00 0.30000000E+03</pdfrwt>
<pdfrwt beam="2">0</pdfrwt>
<totfact> 0.33639072E+01</totfact>
</mgrwt>
</event>
<event>
 6    1  0.1940992E-004  0.3000000E+03  0.7818608E-02  0.1093470E+00
          1   -1    0    0  502    0  0.00000000000E+00  0.00000000000E+00  0.49196799927E+02  0.49196799927E+02  0.00000000000E+00 0.  1.
         13   -1    0    0    0    0 -0.00000000000E+00 -0.00000000000E+00 -0.10000000000E+04  0.10000000000E+04  0.00000000000E+00 0.  1.
    9000005    2    1    2  501    0 -0.11212466080E+02  0.20595554420E+01 -0.96911089001E+03  0.10276298652E+04  0.34163908074E+03 0.  0.
         13    1    3    3    0    0  0.97473754847E+02  0.11753139891E+03 -0.68928768074E+03  0.70599735795E+03  0.00000000000E+00 0.  1.
          1    1    3    3  501    0 -0.10868622093E+03 -0.11547184347E+03 -0.27982320927E+03  0.32163250721E+03  0.00000000000E+00 0.  1.
         21    1    1    2  502  501  0.11212466080E+02 -0.20595554420E+01  0.18307689934E+02  0.21566934760E+02  0.00000000000E+00 0.  1.
<mgrwt>
<rscale>  1 0.30000000E+03</rscale>
<asrwt>0</asrwt>
<pdfrwt beam="1">  1        1 0.17889783E+00 0.30000000E+03</pdfrwt>
<pdfrwt beam="2">0</pdfrwt>
<totfact> 0.12932315E+01</totfact>
</mgrwt>
</event>
<event>
 6    1  0.1940992E-004  0.3000000E+03  0.7818608E-02  0.1093470E+00
          1   -1    0    0  502    0  0.00000000000E+00  0.00000000000E+00  0.41233091414E+02  0.41233091414E+02  0.00000000000E+00 0.  1.
         13   -1    0    0    0    0 -0.00000000000E+00 -0.00000000000E+00 -0.10000000000E+04  0.10000000000E+04  0.00000000000E+00 0.  1.
    9000005    2    1    2  501    0 -0.97034429124E+01 -0.14766147534E+02 -0.96897129646E+03  0.10208290367E+04  0.32074031997E+03 0.  0.
         13    1    3    3    0    0 -0.75099429620E+01  0.11680193284E+03 -0.14465262304E+03  0.18607383510E+03  0.00000000000E+00 0.  1.
          3    1    3    3  501    0 -0.21934999504E+01 -0.13156808037E+03 -0.82431867342E+03  0.83475520158E+03  0.00000000000E+00 0.  1.
         21    1    1    2  502  501  0.97034429124E+01  0.14766147534E+02  0.10204387877E+02  0.20404054727E+02  0.00000000000E+00 0.  1.
<mgrwt>
<rscale>  1 0.30000000E+03</rscale>
<asrwt>0</asrwt>
<pdfrwt beam="1">  1        1 0.14993883E+00 0.30000000E+03</pdfrwt>
<pdfrwt beam="2">0</pdfrwt>
<totfact> 0.17977827E+01</totfact>
</mgrwt>
</event>
<event>
 6    1  0.1940992E-004  0.3000000E+03  0.7818608E-02  0.1093470E+00
          1   -1    0    0  502    0  0.00000000000E+00  0.00000000000E+00  0.12792637287E+02  0.12792637287E+02  0.00000000000E+00 0.  1.
         13   -1    0    0    0    0 -0.00000000000E+00 -0.00000000000E+00 -0.10000000000E+04  0.10000000000E+04  0.00000000000E+00 0.  1.
    9000005    2    1    2  501    0  0.10751004637E+02 -0.65114621195E+01 -0.94014124721E+03  0.96407711134E+03  0.21312233263E+03 0.  0.
         13    1    3    3    0    0 -0.21906233068E+02 -0.10343161758E+03 -0.58609810516E+03  0.59555769782E+03  0.00000000000E+00 0.  1.
          3    1    3    3  501    0  0.32657237706E+02  0.96920155458E+02 -0.35404314204E+03  0.36851941351E+03  0.00000000000E+00 0.  1.
         21    1    1    2  502  501 -0.10751004637E+02  0.65114621195E+01 -0.47066115505E+02  0.48715525948E+02  0.00000000000E+00 0.  1.
<mgrwt>
<rscale>  1 0.30000000E+03</rscale>
<asrwt>0</asrwt>
<pdfrwt beam="1">  1        1 0.46518779E-01 0.30000000E+03</pdfrwt>
<pdfrwt beam="2">0</pdfrwt>
<totfact> 0.97010912E+01</totfact>
</mgrwt>
</event>
<event>
 6    1  0.1940992E-004  0.3000000E+03  0.7818608E-02  0.1093470E+00
          1   -1    0    0  502    0  0.00000000000E+00  0.00000000000E+00  0.35076519057E+02  0.35076519057E+02  0.00000000000E+00 0.  1.
         13   -1    0    0    0    0 -0.00000000000E+00 -0.00000000000E+00 -0.10000000000E+04  0.10000000000E+04  0.00000000000E+00 0.  1.
    9000005    2    1    2  501    0 -0.48549548458E+02  0.74899889618E+01 -0.81899508398E+03  0.88110166516E+03  0.32120715775E+03 0.  0.
         13    1    3    3    0    0  0.11345896737E+03 -0.74803104661E+02 -0.26093696612E+03  0.29420493203E+03  0.00000000000E+00 0.  1.
          3    1    3    3  501    0 -0.16200851583E+03  0.82293093623E+02 -0.55805811785E+03  0.58689673313E+03  0.00000000000E+00 0.  1.
         21    1    1    2  502  501  0.48549548458E+02 -0.74899889618E+01 -0.14592839697E+03  0.15397485389E+03  0.00000000000E+00 0. -1.
<mgrwt>
<rscale>  1 0.30000000E+03</rscale>
<asrwt>0</asrwt>
<pdfrwt beam="1">  1        1 0.12755125E+00 0.30000000E+03</pdfrwt>
<pdfrwt beam="2">0</pdfrwt>
<totfact> 0.23596392E+01</totfact>
</mgrwt>
</event>
<event>
 6    1  0.1940992E-004  0.3000000E+03  0.7818608E-02  0.1093470E+00
          1   -1    0    0  502    0  0.00000000000E+00  0.00000000000E+00  0.59542031479E+02  0.59542031479E+02  0.00000000000E+00 0.  1.
         13   -1    0    0    0    0 -0.00000000000E+00 -0.00000000000E+00 -0.10000000000E+04  0.10000000000E+04  0.00000000000E+00 0.  1.
    9000005    2    1    2  501    0 -0.79815101629E+01  0.22648545965E+02 -0.96912490751E+03  0.10221461155E+04  0.32404156215E+03 0.  0.
         13    1    3    3    0    0  0.11925498835E+03 -0.82341678384E+02 -0.30261967036E+03  0.33553028050E+03  0.00000000000E+00 0.  1.
          1    1    3    3  501    0 -0.12723649852E+03  0.10499022435E+03 -0.66650523715E+03  0.68661583503E+03  0.00000000000E+00 0.  1.
         21    1    1    2  502  501  0.79815101629E+01 -0.22648545965E+02  0.28666938987E+02  0.37395915949E+02  0.00000000000E+00 0.  1.
<mgrwt>
<rscale>  1 0.30000000E+03</rscale>
<asrwt>0</asrwt>
<pdfrwt beam="1">  1        1 0.21651693E+00 0.30000000E+03</pdfrwt>
<pdfrwt beam="2">0</pdfrwt>
<totfact> 0.85593540E+00</totfact>
</mgrwt>
</event>
<event>
 6    1  0.1940992E-004  0.3000000E+03  0.7818608E-02  0.1093470E+00
          3   -1    0    0  502    0  0.00000000000E+00  0.00000000000E+00  0.40206694492E+02  0.40206694492E+02  0.00000000000E+00 0.  1.
         13   -1    0    0    0    0 -0.00000000000E+00 -0.00000000000E+00 -0.10000000000E+04  0.10000000000E+04  0.00000000000E+00 0.  1.
    9000005    2    1    2  501    0 -0.16504650730E+02 -0.23584127785E+02 -0.95381158968E+03  0.10108060907E+04  0.33338234776E+03 0.  0.
         13    1    3    3    0    0  0.48389616039E+02  0.88096621051E+02 -0.81507718317E+03  0.82125110904E+03  0.00000000000E+00 0.  1.
          1    1    3    3  501    0 -0.64894266769E+02 -0.11168074884E+03 -0.13873440651E+03  0.18955498166E+03  0.00000000000E+00 0.  1.
         21    1    1    2  502  501  0.16504650730E+02  0.23584127785E+02 -0.59817158234E+01  0.29400603791E+02  0.00000000000E+00 0.  1.
<mgrwt>
<rscale>  1 0.30000000E+03</rscale>
<asrwt>0</asrwt>
<pdfrwt beam="1">  1        3 0.14620647E+00 0.30000000E+03</pdfrwt>
<pdfrwt beam="2">0</pdfrwt>
<totfact> 0.11136228E+00</totfact>
</mgrwt>
</event>
<event>
 6    1  0.1940992E-004  0.3000000E+03  0.7818608E-02  0.1093470E+00
          1   -1    0    0  502    0  0.00000000000E+00  0.00000000000E+00  0.90541226879E+02  0.90541226879E+02  0.00000000000E+00 0.  1.
         13   -1    0    0    0    0 -0.00000000000E+00 -0.00000000000E+00 -0.10000000000E+04  0.10000000000E+04  0.00000000000E+00 0.  1.
    9000005    2    1    2  501    0 -0.14341683944E+03 -0.15270483330E+03 -0.52965337254E+03  0.65679095511E+03  0.32703900030E+03 0.  0.
         13    1    3    3    0    0 -0.18906820306E+02 -0.19001255454E+03 -0.48183864616E+03  0.51829597690E+03  0.00000000000E+00 0.  1.
          3    1    3    3  501    0 -0.12451001914E+03  0.37307721241E+02 -0.47814726377E+02  0.13849497821E+03  0.00000000000E+00 0.  1.
         21    1    1    2  502  501  0.14341683944E+03  0.15270483330E+03 -0.37980540059E+03  0.43375027177E+03  0.00000000000E+00 0.  1.
<mgrwt>
<rscale>  1 0.30000000E+03</rscale>
<asrwt>0</asrwt>
<pdfrwt beam="1">  1        1 0.32924152E+00 0.30000000E+03</pdfrwt>
<pdfrwt beam="2">0</pdfrwt>
<totfact> 0.25079477E+00</totfact>
</mgrwt>
</event>
<event>
 6    1  0.1940992E-004  0.3000000E+03  0.7818608E-02  0.1093470E+00
          1   -1    0    0  502    0  0.00000000000E+00  0.00000000000E+00  0.31945860710E+02  0.31945860710E+02  0.00000000000E+00 0.  1.
         13   -1    0    0    0    0 -0.00000000000E+00 -0.00000000000E+00 -0.10000000000E+04  0.10000000000E+04  0.00000000000E+00 0.  1.
    9000005    2    1    2  501    0 -0.25475829551E+02  0.13895177595E+02 -0.94204051454E+03  0.99297404365E+03  0.31259402824E+03 0.  0.
         13    1    3    3    0    0 -0.53078947747E+02  0.14007493733E+03 -0.72578488086E+03  0.74108167974E+03  0.00000000000E+00 0.  1.
          1    1    3    3  501    0  0.27603118195E+02 -0.12617975974E+03 -0.21625563367E+03  0.25189236391E+03  0.00000000000E+00 0.  1.
         21    1    1    2  502  501  0.25475829551E+02 -0.13895177595E+02 -0.26013624755E+02  0.38971817056E+02  0.00000000000E+00 0.  1.
<mgrwt>
<rscale>  1 0.30000000E+03</rscale>
<asrwt>0</asrwt>
<pdfrwt beam="1">  1        1 0.11616701E+00 0.30000000E+03</pdfrwt>
<pdfrwt beam="2">0</pdfrwt>
<totfact> 0.27338470E+01</totfact>
</mgrwt>
</event>
<event>
 6    1  0.1940992E-004  0.3000000E+03  0.7818608E-02  0.1093470E+00
          1   -1    0    0  502    0  0.00000000000E+00  0.00000000000E+00  0.26750494386E+02  0.26750494386E+02  0.00000000000E+00 0.  1.
         13   -1    0    0    0    0 -0.00000000000E+00 -0.00000000000E+00 -0.10000000000E+04  0.10000000000E+04  0.00000000000E+00 0.  1.
    9000005    2    1    2  501    0  0.91339797857E+01 -0.18098354602E+02 -0.94720119740E+03  0.99374300452E+03  0.29987342440E+03 0.  0.
         13    1    3    3    0    0 -0.76756712077E+02  0.11618666738E+03 -0.49773673150E+03  0.51684890289E+03  0.00000000000E+00 0.  1.
          1    1    3    3  501    0  0.85890691862E+02 -0.13428502198E+03 -0.44946446589E+03  0.47689410164E+03  0.00000000000E+00 0.  1.
         21    1    1    2  502  501 -0.91339797857E+01  0.18098354602E+02 -0.26048308217E+02  0.33007489862E+02  0.00000000000E+00 0. -1.
<mgrwt>
<rscale>  1 0.30000000E+03</rscale>
<asrwt>0</asrwt>
<pdfrwt beam="1">  1        1 0.97274730E-01 0.30000000E+03</pdfrwt>
<pdfrwt beam="2">0</pdfrwt>
<totfact> 0.35631929E+01</totfact>
</mgrwt>
</event>
<event>
 6    1  0.1940992E-004  0.3000000E+03  0.7818608E-02  0.1093470E+00
          1   -1    0    0  502    0  0.00000000000E+00  0.00000000000E+00  0.35672664953E+02  0.35672664953E+02  0.00000000000E+00 0.  1.
         13   -1    0    0    0    0 -0.00000000000E+00 -0.00000000000E+00 -0.10000000000E+04  0.10000000000E+04  0.00000000000E+00 0.  1.
    9000005    2    1    2  501    0 -0.24768201306E+02  0.22571250688E+02 -0.91581663825E+03  0.97671324791E+03  0.33782499701E+03 0.  0.
         13    1    3    3    0    0 -0.11831420423E+03  0.46332829439E+02 -0.85104276232E+03  0.86047589466E+03  0.00000000000E+00 0.  1.
          3    1    3    3  501    0  0.93546002923E+02 -0.23761578752E+02 -0.64773875932E+02  0.11623735325E+03  0.00000000000E+00 0.  1.
         21    1    1    2  502  501  0.24768201306E+02 -0.22571250688E+02 -0.48510696799E+02  0.58959417038E+02  0.00000000000E+00 0.  1.
<mgrwt>
<rscale>  1 0.30000000E+03</rscale>
<asrwt>0</asrwt>
<pdfrwt beam="1">  1        1 0.12971906E+00 0.30000000E+03</pdfrwt>
<pdfrwt beam="2">0</pdfrwt>
<totfact> 0.22960553E+01</totfact>
</mgrwt>
</event>
<event>
 6    1  0.1940992E-004  0.3000000E+03  0.7818608E-02  0.1093470E+00
          1   -1    0    0  502    0  0.00000000000E+00  0.00000000000E+00  0.30429797027E+02  0.30429797027E+02  0.00000000000E+00 0.  1.
         13   -1    0    0    0    0 -0.00000000000E+00 -0.00000000000E+00 -0.10000000000E+04  0.10000000000E+04  0.00000000000E+00 0.  1.
    9000005    2    1    2  501    0  0.22109743915E+02  0.17712969571E+02 -0.93119636008E+03  0.98273134962E+03  0.31278052117E+03 0.  0.
         13    1    3    3    0    0  0.15024450728E+02 -0.99849219214E+02 -0.80031800468E+03  0.80666257464E+03  0.00000000000E+00 0.  1.
          3    1    3    3  501    0  0.70852931871E+01  0.11756218879E+03 -0.13087835540E+03  0.17606877498E+03  0.00000000000E+00 0.  1.
         21    1    1    2  502  501 -0.22109743915E+02 -0.17712969571E+02 -0.38373842891E+02  0.47698447409E+02  0.00000000000E+00 0. -1.
<mgrwt>
<rscale>  1 0.30000000E+03</rscale>
<asrwt>0</asrwt>
<pdfrwt beam="1">  1        1 0.11065404E+00 0.30000000E+03</pdfrwt>
<pdfrwt beam="2">0</pdfrwt>
<totfact> 0.29444650E+01</totfact>
</mgrwt>
</event>
<event>
 6    1  0.1940992E-004  0.3000000E+03  0.7818608E-02  0.1093470E+00
          1   -1    0    0  502    0  0.00000000000E+00  0.00000000000E+00  0.51924858574E+02  0.51924858574E+02  0.00000000000E+00 0.  1.
         13   -1    0    0    0    0 -0.00000000000E+00 -0.00000000000E+00 -0.10000000000E+04  0.10000000000E+04  0.00000000000E+00 0.  1.
    9000005    2    1    2  501    0  0.42310542737E+01 -0.35915216199E+02 -0.95819002293E+03  0.10143733552E+04  0.33093410100E+03 0.  0.
         13    1    3    3    0    0 -0.15149020214E+02 -0.24278458076E+02  0.20639084368E+02  0.35283255852E+02  0.00000000000E+00 0.  1.
          1    1    3    3  501    0  0.19380074488E+02 -0.11636758123E+02 -0.97882910730E+03  0.97909009939E+03  0.00000000000E+00 0.  1.
         21    1    1    2  502  501 -0.42310542737E+01  0.35915216199E+02  0.10114881503E+02  0.37551503335E+02  0.00000000000E+00 0.  1.
<mgrwt>
<rscale>  1 0.30000000E+03</rscale>
<asrwt>0</asrwt>
<pdfrwt beam="1">  1        1 0.18881807E+00 0.30000000E+03</pdfrwt>
<pdfrwt beam="2">0</pdfrwt>
<totfact> 0.11584368E+01</totfact>
</mgrwt>
</event>
<event>
 6    1  0.1940992E-004  0.3000000E+03  0.7818608E-02  0.1093470E+00
          1   -1    0    0  502    0  0.00000000000E+00  0.00000000000E+00  0.32568623339E+02  0.32568623339E+02  0.00000000000E+00 0.  1.
         13   -1    0    0    0    0 -0.00000000000E+00 -0.00000000000E+00 -0.10000000000E+04  0.10000000000E+04  0.00000000000E+00 0.  1.
    9000005    2    1    2  501    0 -0.18338791933E+02 -0.13148145115E+01 -0.94523873754E+03  0.10037493024E+04  0.33719186103E+03 0.  0.
         13    1    3    3    0    0 -0.20340877299E+02  0.15226610495E+03 -0.26428374335E+03  0.30568711946E+03  0.00000000000E+00 0.  1.
          3    1    3    3  501    0  0.20020853665E+01 -0.15358091946E+03 -0.68095499420E+03  0.69806218297E+03  0.00000000000E+00 0.  1.
         21    1    1    2  502  501  0.18338791933E+02  0.13148145115E+01 -0.22192639117E+02  0.28819320910E+02  0.00000000000E+00 0.  1.
<mgrwt>
<rscale>  1 0.30000000E+03</rscale>
<asrwt>0</asrwt>
<pdfrwt beam="1">  1        1 0.11843161E+00 0.30000000E+03</pdfrwt>
<pdfrwt beam="2">0</pdfrwt>
<totfact> 0.26534224E+01</totfact>
</mgrwt>
</event>
<event>
 6    1  0.1940992E-004  0.3000000E+03  0.7818608E-02  0.1093470E+00
          1   -1    0    0  502    0  0.00000000000E+00  0.00000000000E+00  0.27608033010E+02  0.27608033010E+02  0.00000000000E+00 0.  1.
         13   -1    0    0    0    0 -0.00000000000E+00 -0.00000000000E+00 -0.10000000000E+04  0.10000000000E+04  0.00000000000E+00 0.  1.
    9000005    2    1    2  501    0  0.21118067946E+01 -0.87533168786E+01 -0.95110670107E+03  0.10044965028E+04  0.32299874147E+03 0.  0.
         13    1    3    3    0    0 -0.10890167722E+03  0.30922149351E+02 -0.11962679749E+03  0.16470071433E+03  0.00000000000E+00 0.  1.
          1    1    3    3  501    0  0.11101348401E+03 -0.39675466229E+02 -0.83147990357E+03  0.83979578845E+03  0.00000000000E+00 0.  1.
         21    1    1    2  502  501 -0.21118067946E+01  0.87533168786E+01 -0.21285265924E+02  0.23111530234E+02  0.00000000000E+00 0.  1.
<mgrwt>
<rscale>  1 0.30000000E+03</rscale>
<asrwt>0</asrwt>
<pdfrwt beam="1">  1        1 0.10039306E+00 0.30000000E+03</pdfrwt>
<pdfrwt beam="2">0</pdfrwt>
<totfact> 0.34031077E+01</totfact>
</mgrwt>
</event>
<event>
 6    1  0.1940992E-004  0.3000000E+03  0.7818608E-02  0.1093470E+00
          1   -1    0    0  502    0  0.00000000000E+00  0.00000000000E+00  0.40285953169E+02  0.40285953169E+02  0.00000000000E+00 0.  1.
         13   -1    0    0    0    0 -0.00000000000E+00 -0.00000000000E+00 -0.10000000000E+04  0.10000000000E+04  0.00000000000E+00 0.  1.
    9000005    2    1    2  501    0 -0.25028665054E+02 -0.42924170214E+01 -0.95748378648E+03  0.10147941314E+04  0.33524180638E+03 0.  0.
         13    1    3    3    0    0 -0.14947699257E+02  0.57509049939E+02 -0.43211144400E+01  0.59576812335E+02  0.00000000000E+00 0.  1.
          1    1    3    3  501    0 -0.10080965796E+02 -0.61801466961E+02 -0.95316267204E+03  0.95521731902E+03  0.00000000000E+00 0.  1.
         21    1    1    2  502  501  0.25028665054E+02  0.42924170214E+01 -0.22302603557E+01  0.25491821816E+02  0.00000000000E+00 0. -1.
<mgrwt>
<rscale>  1 0.30000000E+03</rscale>
<asrwt>0</asrwt>
<pdfrwt beam="1">  1        1 0.14649468E+00 0.30000000E+03</pdfrwt>
<pdfrwt beam="2">0</pdfrwt>
<totfact> 0.18721487E+01</totfact>
</mgrwt>
</event>
<event>
 6    1  0.1940992E-004  0.3000000E+03  0.7818608E-02  0.1093470E+00
          1   -1    0    0  502    0  0.00000000000E+00  0.00000000000E+00  0.35122993464E+02  0.35122993464E+02  0.00000000000E+00 0.  1.
         13   -1    0    0    0    0 -0.00000000000E+00 -0.00000000000E+00 -0.10000000000E+04  0.10000000000E+04  0.00000000000E+00 0.  1.
    9000005    2    1    2  501    0 -0.18771001349E+02 -0.36247835666E+02 -0.82001846649E+03  0.88462298447E+03  0.32933460673E+03 0.  0.
         13    1    3    3    0    0  0.73581539955E+02 -0.14892608724E+03 -0.28257813636E+03  0.32778594484E+03  0.00000000000E+00 0.  1.
          3    1    3    3  501    0 -0.92352541304E+02  0.11267825157E+03 -0.53744033013E+03  0.55683703963E+03  0.00000000000E+00 0.  1.
         21    1    1    2  502  501  0.18771001349E+02  0.36247835666E+02 -0.14485854005E+03  0.15050000899E+03  0.00000000000E+00 0. -1.
<mgrwt>
<rscale>  1 0.30000000E+03</rscale>
<asrwt>0</asrwt>
<pdfrwt beam="1">  1        1 0.12772025E+00 0.30000000E+03</pdfrwt>
<pdfrwt beam="2">0</pdfrwt>
<totfact> 0.23546014E+01</totfact>
</mgrwt>
</event>
<event>
 6    1  0.1940992E-004  0.3000000E+03  0.7818608E-02  0.1093470E+00
          1   -1    0    0  502    0  0.00000000000E+00  0.00000000000E+00  0.36559093787E+02  0.36559093787E+02  0.00000000000E+00 0.  1.
         13   -1    0    0    0    0 -0.00000000000E+00 -0.00000000000E+00 -0.10000000000E+04  0.10000000000E+04  0.00000000000E+00 0.  1.
    9000005    2    1    2  501    0 -0.33758492630E+02  0.83287275655E+01 -0.93872306141E+03  0.99389792433E+03  0.32468922749E+03 0.  0.
         13    1    3    3    0    0 -0.12056591620E+03  0.94719367045E+02 -0.24192192770E+03  0.28641598724E+03  0.00000000000E+00 0.  1.
          1    1    3    3  501    0  0.86807423574E+02 -0.86390639479E+02 -0.69680113371E+03  0.70748193709E+03  0.00000000000E+00 0.  1.
         21    1    1    2  502  501  0.33758492630E+02 -0.83287275655E+01 -0.24717844806E+02  0.42661169456E+02  0.00000000000E+00 0. -1.
<mgrwt>
<rscale>  1 0.30000000E+03</rscale>
<asrwt>0</asrwt>
<pdfrwt beam="1">  1        1 0.13294244E+00 0.30000000E+03</pdfrwt>
<pdfrwt beam="2">0</pdfrwt>
<totfact> 0.22055682E+01</totfact>
</mgrwt>
</event>
<event>
 6    1  0.1940992E-004  0.3000000E+03  0.7818608E-02  0.1093470E+00
          1   -1    0    0  502    0  0.00000000000E+00  0.00000000000E+00  0.45854032436E+02  0.45854032436E+02  0.00000000000E+00 0.  1.
         13   -1    0    0    0    0 -0.00000000000E+00 -0.00000000000E+00 -0.10000000000E+04  0.10000000000E+04  0.00000000000E+00 0.  1.
    9000005    2    1    2  501    0 -0.28285164384E+02  0.31634347596E+02 -0.95170142772E+03  0.10033480535E+04  0.31491415722E+03 0.  0.
         13    1    3    3    0    0  0.41295280024E+02 -0.95145919252E+02 -0.73835904128E+03  0.74560855678E+03  0.00000000000E+00 0.  1.
          1    1    3    3  501    0 -0.69580444408E+02  0.12678026685E+03 -0.21334238645E+03  0.25773949670E+03  0.00000000000E+00 0.  1.
         21    1    1    2  502  501  0.28285164384E+02 -0.31634347596E+02 -0.24445398413E+01  0.42505978957E+02  0.00000000000E+00 0.  1.
<mgrwt>
<rscale>  1 0.30000000E+03</rscale>
<asrwt>0</asrwt>
<pdfrwt beam="1">  1        1 0.16674229E+00 0.30000000E+03</pdfrwt>
<pdfrwt beam="2">0</pdfrwt>
<totfact> 0.14821987E+01</totfact>
</mgrwt>
</event>
<event>
 6    1  0.1940992E-004  0.3000000E+03  0.7818608E-02  0.1093470E+00
          1   -1    0    0  502    0  0.00000000000E+00  0.00000000000E+00  0.63609179611E+02  0.63609179611E+02  0.00000000000E+00 0.  1.
         13   -1    0    0    0    0 -0.00000000000E+00 -0.00000000000E+00 -0.10000000000E+04  0.10000000000E+04  0.00000000000E+00 0.  1.
    9000005    2    1    2  501    0  0.47602692914E+01 -0.97118410525E+01 -0.97071913087E+03  0.10276173344E+04  0.33702340410E+03 0.  0.
         13    1    3    3    0    0 -0.10954489652E+03 -0.93697796122E+02 -0.21598893863E+03  0.25967399361E+03  0.00000000000E+00 0.  1.
          1    1    3    3  501    0  0.11430516581E+03  0.83985955070E+02 -0.75473019225E+03  0.76794334079E+03  0.00000000000E+00 0.  1.
         21    1    1    2  502  501 -0.47602692914E+01  0.97118410525E+01  0.34328310485E+02  0.35991845203E+02  0.00000000000E+00 0.  1.
<mgrwt>
<rscale>  1 0.30000000E+03</rscale>
<asrwt>0</asrwt>
<pdfrwt beam="1">  1        1 0.23130660E+00 0.30000000E+03</pdfrwt>
<pdfrwt beam="2">0</pdfrwt>
<totfact> 0.72969286E+00</totfact>
</mgrwt>
</event>
<event>
 6    1  0.1940992E-004  0.3000000E+03  0.7818608E-02  0.1093470E+00
          1   -1    0    0  502    0  0.00000000000E+00  0.00000000000E+00  0.39384391169E+02  0.39384391169E+02  0.00000000000E+00 0.  1.
         13   -1    0    0    0    0 -0.00000000000E+00 -0.00000000000E+00 -0.10000000000E+04  0.10000000000E+04  0.00000000000E+00 0.  1.
    9000005    2    1    2  501    0  0.43159880720E+02  0.38704483377E+02 -0.77655808911E+03  0.84641293498E+03  0.33167993368E+03 0.  0.
         13    1    3    3    0    0  0.11942964935E+02 -0.10448688825E+03 -0.73656469933E+02  0.12839555986E+03  0.00000000000E+00 0.  1.
          1    1    3    3  501    0  0.31216915785E+02  0.14319137163E+03 -0.70290161917E+03  0.71801737512E+03  0.00000000000E+00 0.  1.
         21    1    1    2  502  501 -0.43159880720E+02 -0.38704483377E+02 -0.18405751972E+03  0.19297145619E+03  0.00000000000E+00 0.  1.
<mgrwt>
<rscale>  1 0.30000000E+03</rscale>
<asrwt>0</asrwt>
<pdfrwt beam="1">  1        1 0.14321627E+00 0.30000000E+03</pdfrwt>
<pdfrwt beam="2">0</pdfrwt>
<totfact> 0.19465557E+01</totfact>
</mgrwt>
</event>
<event>
 6    1  0.1940992E-004  0.3000000E+03  0.7818608E-02  0.1093470E+00
          1   -1    0    0  502    0  0.00000000000E+00  0.00000000000E+00  0.30491215991E+02  0.30491215991E+02  0.00000000000E+00 0.  1.
         13   -1    0    0    0    0 -0.00000000000E+00 -0.00000000000E+00 -0.10000000000E+04  0.10000000000E+04  0.00000000000E+00 0.  1.
    9000005    2    1    2  501    0  0.54184363427E+01 -0.20130860520E+02 -0.90846748521E+03  0.96598810632E+03  0.32769687041E+03 0.  0.
         13    1    3    3    0    0 -0.98563627036E+02  0.10268208363E+03 -0.61542130214E+03  0.63166587528E+03  0.00000000000E+00 0.  1.
          1    1    3    3  501    0  0.10398206338E+03 -0.12281294415E+03 -0.29304618307E+03  0.33432223104E+03  0.00000000000E+00 0.  1.
         21    1    1    2  502  501 -0.54184363427E+01  0.20130860520E+02 -0.61041298799E+02  0.64503109667E+02  0.00000000000E+00 0.  1.
<mgrwt>
<rscale>  1 0.30000000E+03</rscale>
<asrwt>0</asrwt>
<pdfrwt beam="1">  1        1 0.11087738E+00 0.30000000E+03</pdfrwt>
<pdfrwt beam="2">0</pdfrwt>
<totfact> 0.29354927E+01</totfact>
</mgrwt>
</event>
<event>
 6    1  0.1940992E-004  0.3000000E+03  0.7818608E-02  0.1093470E+00
          1   -1    0    0  502    0  0.00000000000E+00  0.00000000000E+00  0.32151876806E+02  0.32151876806E+02  0.00000000000E+00 0.  1.
         13   -1    0    0    0    0 -0.00000000000E+00 -0.00000000000E+00 -0.10000000000E+04  0.10000000000E+04  0.00000000000E+00 0.  1.
    9000005    2    1    2  501    0  0.29173677395E+01  0.13530533872E+02 -0.96436483336E+03  0.10178788362E+04  0.32540160861E+03 0.  0.
         13    1    3    3    0    0  0.95945847486E+02 -0.11687359396E+03 -0.61856298923E+03  0.63677720928E+03  0.00000000000E+00 0.  1.
          1    1    3    3  501    0 -0.93028479747E+02  0.13040412784E+03 -0.34580184413E+03  0.38110162687E+03  0.00000000000E+00 0.  1.
         21    1    1    2  502  501 -0.29173677395E+01 -0.13530533872E+02 -0.34832898336E+01  0.14273040652E+02  0.00000000000E+00 0. -1.
<mgrwt>
<rscale>  1 0.30000000E+03</rscale>
<asrwt>0</asrwt>
<pdfrwt beam="1">  1        1 0.11691616E+00 0.30000000E+03</pdfrwt>
<pdfrwt beam="2">0</pdfrwt>
<totfact> 0.27068751E+01</totfact>
</mgrwt>
</event>
<event>
 6    1  0.1940992E-004  0.3000000E+03  0.7818608E-02  0.1093470E+00
          1   -1    0    0  502    0  0.00000000000E+00  0.00000000000E+00  0.34730455968E+02  0.34730455968E+02  0.00000000000E+00 0.  1.
         13   -1    0    0    0    0 -0.00000000000E+00 -0.00000000000E+00 -0.10000000000E+04  0.10000000000E+04  0.00000000000E+00 0.  1.
    9000005    2    1    2  501    0 -0.24051719286E+02 -0.15221794285E+02 -0.90313153798E+03  0.96638340030E+03  0.34269536511E+03 0.  0.
         13    1    3    3    0    0 -0.30612241134E+02 -0.12940153512E+03 -0.13394531069E+03  0.18874112656E+03  0.00000000000E+00 0.  1.
          1    1    3    3  501    0  0.65605218482E+01  0.11417974083E+03 -0.76918622729E+03  0.77764227375E+03  0.00000000000E+00 0.  1.
         21    1    1    2  502  501  0.24051719286E+02  0.15221794285E+02 -0.62138006050E+02  0.68347055663E+02  0.00000000000E+00 0.  1.
<mgrwt>
<rscale>  1 0.30000000E+03</rscale>
<asrwt>0</asrwt>
<pdfrwt beam="1">  1        1 0.12629283E+00 0.30000000E+03</pdfrwt>
<pdfrwt beam="2">0</pdfrwt>
<totfact> 0.23975905E+01</totfact>
</mgrwt>
</event>
<event>
 6    1  0.1940992E-004  0.3000000E+03  0.7818608E-02  0.1093470E+00
          1   -1    0    0  502    0  0.00000000000E+00  0.00000000000E+00  0.30819316844E+02  0.30819316844E+02  0.00000000000E+00 0.  1.
         13   -1    0    0    0    0 -0.00000000000E+00 -0.00000000000E+00 -0.10000000000E+04  0.10000000000E+04  0.00000000000E+00 0.  1.
    9000005    2    1    2  501    0  0.11792838896E+02  0.42442455884E+01 -0.96387249882E+03  0.10172082371E+04  0.32481582327E+03 0.  0.
         13    1    3    3    0    0  0.20605029911E+02  0.32889019522E+02  0.12194529340E+02  0.40681216901E+02  0.00000000000E+00 0.  1.
          3    1    3    3  501    0 -0.88121910153E+01 -0.28644773933E+02 -0.97606702816E+03  0.97652702024E+03  0.00000000000E+00 0.  1.
         21    1    1    2  502  501 -0.11792838896E+02 -0.42442455884E+01 -0.53081843328E+01  0.13611079706E+02  0.00000000000E+00 0.  1.
<mgrwt>
<rscale>  1 0.30000000E+03</rscale>
<asrwt>0</asrwt>
<pdfrwt beam="1">  1        1 0.11207048E+00 0.30000000E+03</pdfrwt>
<pdfrwt beam="2">0</pdfrwt>
<totfact> 0.28882114E+01</totfact>
</mgrwt>
</event>
<event>
 6    1  0.1940992E-004  0.3000000E+03  0.7818608E-02  0.1093470E+00
          1   -1    0    0  502    0  0.00000000000E+00  0.00000000000E+00  0.45937423747E+02  0.45937423747E+02  0.00000000000E+00 0.  1.
         13   -1    0    0    0    0 -0.00000000000E+00 -0.00000000000E+00 -0.10000000000E+04  0.10000000000E+04  0.00000000000E+00 0.  1.
    9000005    2    1    2  501    0  0.53643986763E+02  0.40277617637E+02 -0.89675737687E+03  0.95771129567E+03  0.32944979754E+03 0.  0.
         13    1    3    3    0    0 -0.11173970073E+03 -0.56095118656E+02 -0.52363472018E+03  0.53835466305E+03  0.00000000000E+00 0.  1.
          1    1    3    3  501    0  0.16538368749E+03  0.96372736293E+02 -0.37312265669E+03  0.41935663262E+03  0.00000000000E+00 0.  1.
         21    1    1    2  502  501 -0.53643986763E+02 -0.40277617637E+02 -0.57305199387E+02  0.88226128075E+02  0.00000000000E+00 0.  1.
<mgrwt>
<rscale>  1 0.30000000E+03</rscale>
<asrwt>0</asrwt>
<pdfrwt beam="1">  1        1 0.16704553E+00 0.30000000E+03</pdfrwt>
<pdfrwt beam="2">0</pdfrwt>
<totfact> 0.14771261E+01</totfact>
</mgrwt>
</event>
<event>
 6    1  0.1940992E-004  0.3000000E+03  0.7818608E-02  0.1093470E+00
          1   -1    0    0  502    0  0.00000000000E+00  0.00000000000E+00  0.44519775126E+02  0.44519775126E+02  0.00000000000E+00 0.  1.
         13   -1    0    0    0    0 -0.00000000000E+00 -0.00000000000E+00 -0.10000000000E+04  0.10000000000E+04  0.00000000000E+00 0.  1.
    9000005    2    1    2  501    0 -0.24510225377E+02 -0.32329063048E+02 -0.95356163646E+03  0.10039045016E+04  0.31128529398E+03 0.  0.
         13    1    3    3    0    0  0.16293535807E+02  0.13488287127E+03 -0.32625535480E+03  0.35341395673E+03  0.00000000000E+00 0.  1.
          1    1    3    3  501    0 -0.40803761185E+02 -0.16721193432E+03 -0.62730628166E+03  0.65049054483E+03  0.00000000000E+00 0.  1.
         21    1    1    2  502  501  0.24510225377E+02  0.32329063048E+02 -0.19185884131E+01  0.40615273570E+02  0.00000000000E+00 0.  1.
<mgrwt>
<rscale>  1 0.30000000E+03</rscale>
<asrwt>0</asrwt>
<pdfrwt beam="1">  1        1 0.16189043E+00 0.30000000E+03</pdfrwt>
<pdfrwt beam="2">0</pdfrwt>
<totfact> 0.15661298E+01</totfact>
</mgrwt>
</event>
<event>
 6    1  0.1940992E-004  0.3000000E+03  0.7818608E-02  0.1093470E+00
          1   -1    0    0  502    0  0.00000000000E+00  0.00000000000E+00  0.42340818773E+02  0.42340818773E+02  0.00000000000E+00 0.  1.
         13   -1    0    0    0    0 -0.00000000000E+00 -0.00000000000E+00 -0.10000000000E+04  0.10000000000E+04  0.00000000000E+00 0.  1.
    9000005    2    1    2  501    0 -0.48276514884E+02 -0.50776946295E+01 -0.92718141645E+03  0.98502329076E+03  0.32901230896E+03 0.  0.
         13    1    3    3    0    0  0.54279573133E+02  0.14095422871E+03 -0.49243209666E+03  0.51507643750E+03  0.00000000000E+00 0.  1.
          3    1    3    3  501    0 -0.10255608802E+03 -0.14603192334E+03 -0.43474931979E+03  0.46994685326E+03  0.00000000000E+00 0.  1.
         21    1    1    2  502  501  0.48276514884E+02  0.50776946295E+01 -0.30477764773E+02  0.57317528014E+02  0.00000000000E+00 0. -1.
<mgrwt>
<rscale>  1 0.30000000E+03</rscale>
<asrwt>0</asrwt>
<pdfrwt beam="1">  1        1 0.15396694E+00 0.30000000E+03</pdfrwt>
<pdfrwt beam="2">0</pdfrwt>
<totfact> 0.17153823E+01</totfact>
</mgrwt>
</event>
<event>
 6    1  0.1940992E-004  0.3000000E+03  0.7818608E-02  0.1093470E+00
          1   -1    0    0  502    0  0.00000000000E+00  0.00000000000E+00  0.43665581455E+02  0.43665581455E+02  0.00000000000E+00 0.  1.
         13   -1    0    0    0    0 -0.00000000000E+00 -0.00000000000E+00 -0.10000000000E+04  0.10000000000E+04  0.00000000000E+00 0.  1.
    9000005    2    1    2  501    0  0.36050159562E+01  0.11595284127E+02 -0.97112280181E+03  0.10245307171E+04  0.32624568558E+03 0.  0.
         13    1    3    3    0    0  0.15471844895E+03 -0.25983705932E+02 -0.33949674070E+03  0.37399329989E+03  0.00000000000E+00 0.  1.
          3    1    3    3  501    0 -0.15111343300E+03  0.37578990059E+02 -0.63162606111E+03  0.65053741721E+03  0.00000000000E+00 0.  1.
         21    1    1    2  502  501 -0.36050159562E+01 -0.11595284127E+02  0.14788383262E+02  0.19134864346E+02  0.00000000000E+00 0. -1.
<mgrwt>
<rscale>  1 0.30000000E+03</rscale>
<asrwt>0</asrwt>
<pdfrwt beam="1">  1        1 0.15878427E+00 0.30000000E+03</pdfrwt>
<pdfrwt beam="2">0</pdfrwt>
<totfact> 0.16227410E+01</totfact>
</mgrwt>
</event>
<event>
 6    1  0.1940992E-004  0.3000000E+03  0.7818608E-02  0.1093470E+00
          1   -1    0    0  502    0  0.00000000000E+00  0.00000000000E+00  0.43661901391E+02  0.43661901391E+02  0.00000000000E+00 0.  1.
         13   -1    0    0    0    0 -0.00000000000E+00 -0.00000000000E+00 -0.10000000000E+04  0.10000000000E+04  0.00000000000E+00 0.  1.
    9000005    2    1    2  501    0  0.38372909885E+02  0.68665930786E+02 -0.77830901013E+03  0.84902930749E+03  0.32999751433E+03 0.  0.
         13    1    3    3    0    0  0.52387262674E+02  0.14905616080E+03 -0.74385912637E+03  0.76045286786E+03  0.00000000000E+00 0.  1.
          1    1    3    3  501    0 -0.14014352789E+02 -0.80390230011E+02 -0.34449883758E+02  0.88576439623E+02  0.00000000000E+00 0.  1.
         21    1    1    2  502  501 -0.38372909885E+02 -0.68665930786E+02 -0.17802908848E+03  0.19463259390E+03  0.00000000000E+00 0.  1.
<mgrwt>
<rscale>  1 0.30000000E+03</rscale>
<asrwt>0</asrwt>
<pdfrwt beam="1">  1        1 0.15877089E+00 0.30000000E+03</pdfrwt>
<pdfrwt beam="2">0</pdfrwt>
<totfact> 0.16229900E+01</totfact>
</mgrwt>
</event>
<event>
 6    1  0.1940992E-004  0.3000000E+03  0.7818608E-02  0.1093470E+00
          1   -1    0    0  502    0  0.00000000000E+00  0.00000000000E+00  0.28332326849E+02  0.28332326849E+02  0.00000000000E+00 0.  1.
         13   -1    0    0    0    0 -0.00000000000E+00 -0.00000000000E+00 -0.10000000000E+04  0.10000000000E+04  0.00000000000E+00 0.  1.
    9000005    2    1    2  501    0 -0.87207063216E+01 -0.42522108722E+01 -0.95974792368E+03  0.10129631225E+04  0.32385811468E+03 0.  0.
         13    1    3    3    0    0 -0.10079732775E+03 -0.44809992173E+02 -0.10492983225E+03  0.15224423265E+03  0.00000000000E+00 0.  1.
          1    1    3    3  501    0  0.92076621427E+02  0.40557781301E+02 -0.85481809143E+03  0.86071888981E+03  0.00000000000E+00 0.  1.
         21    1    1    2  502  501  0.87207063216E+01  0.42522108722E+01 -0.11919749472E+02  0.15369204388E+02  0.00000000000E+00 0. -1.
<mgrwt>
<rscale>  1 0.30000000E+03</rscale>
<asrwt>0</asrwt>
<pdfrwt beam="1">  1        1 0.10302686E+00 0.30000000E+03</pdfrwt>
<pdfrwt beam="2">0</pdfrwt>
<totfact> 0.32760052E+01</totfact>
</mgrwt>
</event>
<event>
 6    1  0.1940992E-004  0.3000000E+03  0.7818608E-02  0.1093470E+00
          1   -1    0    0  502    0  0.00000000000E+00  0.00000000000E+00  0.32559610255E+02  0.32559610255E+02  0.00000000000E+00 0.  1.
         13   -1    0    0    0    0 -0.00000000000E+00 -0.00000000000E+00 -0.10000000000E+04  0.10000000000E+04  0.00000000000E+00 0.  1.
    9000005    2    1    2  501    0  0.86792801941E+01 -0.10934060880E+02 -0.94726883033E+03  0.10080284994E+04  0.34439560833E+03 0.  0.
         13    1    3    3    0    0 -0.15921212384E+03 -0.46365095263E+02 -0.56879122799E+03  0.59247082922E+03  0.00000000000E+00 0.  1.
          1    1    3    3  501    0  0.16789140404E+03  0.35431034383E+02 -0.37847760234E+03  0.41555767015E+03  0.00000000000E+00 0.  1.
         21    1    1    2  502  501 -0.86792801941E+01  0.10934060880E+02 -0.20171559412E+02  0.24531110882E+02  0.00000000000E+00 0.  1.
<mgrwt>
<rscale>  1 0.30000000E+03</rscale>
<asrwt>0</asrwt>
<pdfrwt beam="1">  1        1 0.11839883E+00 0.30000000E+03</pdfrwt>
<pdfrwt beam="2">0</pdfrwt>
<totfact> 0.26545631E+01</totfact>
</mgrwt>
</event>
<event>
 6    1  0.1940992E-004  0.3000000E+03  0.7818608E-02  0.1093470E+00
          1   -1    0    0  502    0  0.00000000000E+00  0.00000000000E+00  0.43246132366E+02  0.43246132366E+02  0.00000000000E+00 0.  1.
         13   -1    0    0    0    0 -0.00000000000E+00 -0.00000000000E+00 -0.10000000000E+04  0.10000000000E+04  0.00000000000E+00 0.  1.
    9000005    2    1    2  501    0  0.22798863414E+02 -0.23523049083E+02 -0.95953125235E+03  0.10103700639E+04  0.31476073420E+03 0.  0.
         13    1    3    3    0    0  0.35098686545E+02 -0.13870707371E+03 -0.22415974558E+03  0.26593074593E+03  0.00000000000E+00 0.  1.
          1    1    3    3  501    0 -0.12299823131E+02  0.11518402463E+03 -0.73537150678E+03  0.74443931798E+03  0.00000000000E+00 0.  1.
         21    1    1    2  502  501 -0.22798863414E+02  0.23523049083E+02  0.27773847185E+01  0.32876068455E+02  0.00000000000E+00 0. -1.
<mgrwt>
<rscale>  1 0.30000000E+03</rscale>
<asrwt>0</asrwt>
<pdfrwt beam="1">  1        1 0.15725899E+00 0.30000000E+03</pdfrwt>
<pdfrwt beam="2">0</pdfrwt>
<totfact> 0.16514147E+01</totfact>
</mgrwt>
</event>
<event>
 6    1  0.1940992E-004  0.3000000E+03  0.7818608E-02  0.1093470E+00
          1   -1    0    0  502    0  0.00000000000E+00  0.00000000000E+00  0.89265885109E+02  0.89265885109E+02  0.00000000000E+00 0.  1.
         13   -1    0    0    0    0 -0.00000000000E+00 -0.00000000000E+00 -0.10000000000E+04  0.10000000000E+04  0.00000000000E+00 0.  1.
    9000005    2    1    2  501    0 -0.14628975926E+03  0.14467016393E+03 -0.69619518178E+03  0.79201665665E+03  0.31665833840E+03 0.  0.
         13    1    3    3    0    0 -0.16719733906E+01 -0.80796762317E+02 -0.32100067124E+03  0.33101713435E+03  0.00000000000E+00 0.  1.
          3    1    3    3  501    0 -0.14461778587E+03  0.22546692625E+03 -0.37519451054E+03  0.46099952230E+03  0.00000000000E+00 0.  1.
         21    1    1    2  502  501  0.14628975926E+03 -0.14467016393E+03 -0.21453893311E+03  0.29724922846E+03  0.00000000000E+00 0. -1.
<mgrwt>
<rscale>  1 0.30000000E+03</rscale>
<asrwt>0</asrwt>
<pdfrwt beam="1">  1        1 0.32460390E+00 0.30000000E+03</pdfrwt>
<pdfrwt beam="2">0</pdfrwt>
<totfact> 0.26437382E+00</totfact>
</mgrwt>
</event>
<event>
 6    1  0.1940992E-004  0.3000000E+03  0.7818608E-02  0.1093470E+00
          1   -1    0    0  502    0  0.00000000000E+00  0.00000000000E+00  0.38943978216E+02  0.38943978216E+02  0.00000000000E+00 0.  1.
         13   -1    0    0    0    0 -0.00000000000E+00 -0.00000000000E+00 -0.10000000000E+04  0.10000000000E+04  0.00000000000E+00 0.  1.
    9000005    2    1    2  501    0  0.29184043665E+02 -0.10545304519E+01 -0.95347514737E+03  0.10087729640E+04  0.32810854287E+03 0.  0.
         13    1    3    3    0    0 -0.13073714620E+03  0.57336773719E+02 -0.28231296514E+03  0.31635473333E+03  0.00000000000E+00 0.  1.
          1    1    3    3  501    0  0.15992118987E+03 -0.58391304171E+02 -0.67116218223E+03  0.69241823071E+03  0.00000000000E+00 0.  1.
         21    1    1    2  502  501 -0.29184043665E+02  0.10545304519E+01 -0.75808744177E+01  0.30171014171E+02  0.00000000000E+00 0. -1.
<mgrwt>
<rscale>  1 0.30000000E+03</rscale>
<asrwt>0</asrwt>
<pdfrwt beam="1">  1        1 0.14161476E+00 0.30000000E+03</pdfrwt>
<pdfrwt beam="2">0</pdfrwt>
<totfact> 0.19842615E+01</totfact>
</mgrwt>
</event>
<event>
 6    1  0.1940992E-004  0.3000000E+03  0.7818608E-02  0.1093470E+00
          1   -1    0    0  502    0  0.00000000000E+00  0.00000000000E+00  0.50403425431E+02  0.50403425431E+02  0.00000000000E+00 0.  1.
         13   -1    0    0    0    0 -0.00000000000E+00 -0.00000000000E+00 -0.10000000000E+04  0.10000000000E+04  0.00000000000E+00 0.  1.
    9000005    2    1    2  501    0  0.14266058795E+02  0.63901785946E+02 -0.92286650169E+03  0.97968245629E+03  0.32219276300E+03 0.  0.
         13    1    3    3    0    0  0.15705525765E+03  0.22646619955E+02 -0.30059120607E+03  0.33990336350E+03  0.00000000000E+00 0.  1.
          1    1    3    3  501    0 -0.14278919885E+03  0.41255165990E+02 -0.62227529562E+03  0.63977909279E+03  0.00000000000E+00 0.  1.
         21    1    1    2  502  501 -0.14266058795E+02 -0.63901785946E+02 -0.26730072878E+02  0.70720969144E+02  0.00000000000E+00 0.  1.
<mgrwt>
<rscale>  1 0.30000000E+03</rscale>
<asrwt>0</asrwt>
<pdfrwt beam="1">  1        1 0.18328557E+00 0.30000000E+03</pdfrwt>
<pdfrwt beam="2">0</pdfrwt>
<totfact> 0.12316250E+01</totfact>
</mgrwt>
</event>
<event>
 6    1  0.1940992E-004  0.3000000E+03  0.7818608E-02  0.1093470E+00
          1   -1    0    0  502    0  0.00000000000E+00  0.00000000000E+00  0.29103472589E+02  0.29103472589E+02  0.00000000000E+00 0.  1.
         13   -1    0    0    0    0 -0.00000000000E+00 -0.00000000000E+00 -0.10000000000E+04  0.10000000000E+04  0.00000000000E+00 0.  1.
    9000005    2    1    2  501    0  0.91922231110E+01  0.48077467821E+01 -0.95170859049E+03  0.10072909001E+04  0.32981525865E+03 0.  0.
         13    1    3    3    0    0 -0.40737540548E+02 -0.81567356148E+01 -0.95471439860E+03  0.95561794794E+03  0.00000000000E+00 0.  1.
          1    1    3    3  501    0  0.49929763659E+02  0.12964482397E+02  0.30058081103E+01  0.51672952164E+02  0.00000000000E+00 0.  1.
         21    1    1    2  502  501 -0.91922231110E+01 -0.48077467821E+01 -0.19187936925E+02  0.21812572482E+02  0.00000000000E+00 0.  1.
<mgrwt>
<rscale>  1 0.30000000E+03</rscale>
<asrwt>0</asrwt>
<pdfrwt beam="1">  1        1 0.10583103E+00 0.30000000E+03</pdfrwt>
<pdfrwt beam="2">0</pdfrwt>
<totfact> 0.31481459E+01</totfact>
</mgrwt>
</event>
<event>
 6    1  0.1940992E-004  0.3000000E+03  0.7818608E-02  0.1093470E+00
          1   -1    0    0  502    0  0.00000000000E+00  0.00000000000E+00  0.23141114331E+02  0.23141114331E+02  0.00000000000E+00 0.  1.
         13   -1    0    0    0    0 -0.00000000000E+00 -0.00000000000E+00 -0.10000000000E+04  0.10000000000E+04  0.00000000000E+00 0.  1.
    9000005    2    1    2  501    0 -0.23095539951E+02  0.92359504138E+01 -0.91683648608E+03  0.95816884949E+03  0.27727187955E+03 0.  0.
         13    1    3    3    0    0  0.40549829593E+02  0.85284591083E+01 -0.88683618509E+03  0.88780371844E+03  0.00000000000E+00 0.  1.
          1    1    3    3  501    0 -0.63645369543E+02  0.70749130555E+00 -0.30000300988E+02  0.70365131050E+02  0.00000000000E+00 0.  1.
         21    1    1    2  502  501  0.23095539951E+02 -0.92359504138E+01 -0.60022399591E+02  0.64972264839E+02  0.00000000000E+00 0.  1.
<mgrwt>
<rscale>  1 0.30000000E+03</rscale>
<asrwt>0</asrwt>
<pdfrwt beam="1">  1        1 0.84149684E-01 0.30000000E+03</pdfrwt>
<pdfrwt beam="2">0</pdfrwt>
<totfact> 0.43779929E+01</totfact>
</mgrwt>
</event>
<event>
 6    1  0.1940992E-004  0.3000000E+03  0.7818608E-02  0.1093470E+00
          1   -1    0    0  502    0  0.00000000000E+00  0.00000000000E+00  0.33871892812E+02  0.33871892812E+02  0.00000000000E+00 0.  1.
         13   -1    0    0    0    0 -0.00000000000E+00 -0.00000000000E+00 -0.10000000000E+04  0.10000000000E+04  0.00000000000E+00 0.  1.
    9000005    2    1    2  501    0  0.13588989131E+02 -0.14037193182E+01 -0.96229101407E+03  0.10196819549E+04  0.33698762944E+03 0.  0.
         13    1    3    3    0    0  0.49918385334E+02 -0.16359446632E+03 -0.49265153841E+03  0.52149835369E+03  0.00000000000E+00 0.  1.
          1    1    3    3  501    0 -0.36329396203E+02  0.16219074700E+03 -0.46963947566E+03  0.49818360124E+03  0.00000000000E+00 0.  1.
         21    1    1    2  502  501 -0.13588989131E+02  0.14037193182E+01 -0.38370931172E+01  0.14189937883E+02  0.00000000000E+00 0.  1.
<mgrwt>
<rscale>  1 0.30000000E+03</rscale>
<asrwt>0</asrwt>
<pdfrwt beam="1">  1        1 0.12317078E+00 0.30000000E+03</pdfrwt>
<pdfrwt beam="2">0</pdfrwt>
<totfact> 0.24951618E+01</totfact>
</mgrwt>
</event>
<event>
 6    1  0.1940992E-004  0.3000000E+03  0.7818608E-02  0.1093470E+00
          1   -1    0    0  502    0  0.00000000000E+00  0.00000000000E+00  0.38283438347E+02  0.38283438347E+02  0.00000000000E+00 0.  1.
         13   -1    0    0    0    0 -0.00000000000E+00 -0.00000000000E+00 -0.10000000000E+04  0.10000000000E+04  0.00000000000E+00 0.  1.
    9000005    2    1    2  501    0 -0.46629846695E+02 -0.21317304726E+02 -0.91412847541E+03  0.96833062543E+03  0.31528488783E+03 0.  0.
         13    1    3    3    0    0  0.11973683529E+03  0.53589841310E+02 -0.47562244847E+03  0.49338169231E+03  0.00000000000E+00 0.  1.
          3    1    3    3  501    0 -0.16636668199E+03 -0.74907146036E+02 -0.43850602694E+03  0.47494893312E+03  0.00000000000E+00 0.  1.
         21    1    1    2  502  501  0.46629846695E+02  0.21317304726E+02 -0.47588086240E+02  0.69952812921E+02  0.00000000000E+00 0.  1.
<mgrwt>
<rscale>  1 0.30000000E+03</rscale>
<asrwt>0</asrwt>
<pdfrwt beam="1">  1        1 0.13921280E+00 0.30000000E+03</pdfrwt>
<pdfrwt beam="2">0</pdfrwt>
<totfact> 0.20425704E+01</totfact>
</mgrwt>
</event>
<event>
 6    1  0.1940992E-004  0.3000000E+03  0.7818608E-02  0.1093470E+00
          1   -1    0    0  502    0  0.00000000000E+00  0.00000000000E+00  0.35406882101E+02  0.35406882101E+02  0.00000000000E+00 0.  1.
         13   -1    0    0    0    0 -0.00000000000E+00 -0.00000000000E+00 -0.10000000000E+04  0.10000000000E+04  0.00000000000E+00 0.  1.
    9000005    2    1    2  501    0 -0.18599926534E+02 -0.59222792310E+01 -0.96241018491E+03  0.10157651954E+04  0.32429082257E+03 0.  0.
         13    1    3    3    0    0 -0.15790994428E+03 -0.61932187153E+02 -0.42003660818E+03  0.45299216165E+03  0.00000000000E+00 0.  1.
          1    1    3    3  501    0  0.13931001774E+03  0.56009907922E+02 -0.54237357673E+03  0.56277303379E+03  0.00000000000E+00 0.  1.
         21    1    1    2  502  501  0.18599926534E+02  0.59222792310E+01 -0.21829329930E+01  0.19641686659E+02  0.00000000000E+00 0.  1.
<mgrwt>
<rscale>  1 0.30000000E+03</rscale>
<asrwt>0</asrwt>
<pdfrwt beam="1">  1        1 0.12875257E+00 0.30000000E+03</pdfrwt>
<pdfrwt beam="2">0</pdfrwt>
<totfact> 0.23241264E+01</totfact>
</mgrwt>
</event>
<event>
 6    1  0.1940992E-004  0.3000000E+03  0.7818608E-02  0.1093470E+00
          3   -1    0    0  502    0  0.00000000000E+00  0.00000000000E+00  0.32763256340E+02  0.32763256340E+02  0.00000000000E+00 0.  1.
         13   -1    0    0    0    0 -0.00000000000E+00 -0.00000000000E+00 -0.10000000000E+04  0.10000000000E+04  0.00000000000E+00 0.  1.
    9000005    2    1    2  501    0 -0.94868846568E+01  0.47536841911E+01 -0.97274898982E+03  0.10208056917E+04  0.30933972356E+03 0.  0.
         13    1    3    3    0    0  0.83065953096E+01  0.10591685178E+03 -0.86662799625E+03  0.87311595044E+03  0.00000000000E+00 0.  1.
          3    1    3    3  501    0 -0.17793479966E+02 -0.10116316759E+03 -0.10612099356E+03  0.14768974129E+03  0.00000000000E+00 0.  1.
         21    1    1    2  502  501  0.94868846568E+01 -0.47536841911E+01  0.55122461554E+01  0.11957564616E+02  0.00000000000E+00 0. -1.
<mgrwt>
<rscale>  1 0.30000000E+03</rscale>
<asrwt>0</asrwt>
<pdfrwt beam="1">  1        3 0.11913937E+00 0.30000000E+03</pdfrwt>
<pdfrwt beam="2">0</pdfrwt>
<totfact> 0.23667091E+00</totfact>
</mgrwt>
</event>
<event>
 6    1  0.1940992E-004  0.3000000E+03  0.7818608E-02  0.1093470E+00
          1   -1    0    0  502    0  0.00000000000E+00  0.00000000000E+00  0.95721049278E+02  0.95721049278E+02  0.00000000000E+00 0.  1.
         13   -1    0    0    0    0 -0.00000000000E+00 -0.00000000000E+00 -0.10000000000E+04  0.10000000000E+04  0.00000000000E+00 0.  1.
    9000005    2    1    2  501    0  0.18754064452E+03  0.10329411779E+03 -0.49201711062E+03  0.63117719460E+03  0.33235921189E+03 0.  0.
         13    1    3    3    0    0 -0.92975231103E+02  0.54078522467E+02 -0.17120373064E+03  0.20218703613E+03  0.00000000000E+00 0.  1.
          1    1    3    3  501    0  0.28051587562E+03  0.49215595321E+02 -0.32081337998E+03  0.42899015848E+03  0.00000000000E+00 0.  1.
         21    1    1    2  502  501 -0.18754064452E+03 -0.10329411779E+03 -0.41226184010E+03  0.46454385467E+03  0.00000000000E+00 0.  1.
<mgrwt>
<rscale>  1 0.30000000E+03</rscale>
<asrwt>0</asrwt>
<pdfrwt beam="1">  1        1 0.34807728E+00 0.30000000E+03</pdfrwt>
<pdfrwt beam="2">0</pdfrwt>
<totfact> 0.20141466E+00</totfact>
</mgrwt>
</event>
<event>
 6    1  0.1940992E-004  0.3000000E+03  0.7818608E-02  0.1093470E+00
          1   -1    0    0  502    0  0.00000000000E+00  0.00000000000E+00  0.60879026313E+02  0.60879026313E+02  0.00000000000E+00 0.  1.
         13   -1    0    0    0    0 -0.00000000000E+00 -0.00000000000E+00 -0.10000000000E+04  0.10000000000E+04  0.00000000000E+00 0.  1.
    9000005    2    1    2  501    0  0.33581141015E+02  0.19103975108E+02 -0.96029875370E+03  0.10168205054E+04  0.33205058198E+03 0.  0.
         13    1    3    3    0    0 -0.18693923384E+02  0.14501589043E+03 -0.22056051510E+03  0.26462428473E+03  0.00000000000E+00 0.  1.
          1    1    3    3  501    0  0.52275064399E+02 -0.12591191532E+03 -0.73973823860E+03  0.75219622069E+03  0.00000000000E+00 0.  1.
         21    1    1    2  502  501 -0.33581141015E+02 -0.19103975108E+02  0.21177780012E+02  0.44058520891E+02  0.00000000000E+00 0.  1.
<mgrwt>
<rscale>  1 0.30000000E+03</rscale>
<asrwt>0</asrwt>
<pdfrwt beam="1">  1        1 0.22137874E+00 0.30000000E+03</pdfrwt>
<pdfrwt beam="2">0</pdfrwt>
<totfact> 0.81215229E+00</totfact>
</mgrwt>
</event>
<event>
 6    1  0.1940992E-004  0.3000000E+03  0.7818608E-02  0.1093470E+00
          1   -1    0    0  502    0  0.00000000000E+00  0.00000000000E+00  0.60407086057E+02  0.60407086057E+02  0.00000000000E+00 0.  1.
         13   -1    0    0    0    0 -0.00000000000E+00 -0.00000000000E+00 -0.10000000000E+04  0.10000000000E+04  0.00000000000E+00 0.  1.
    9000005    2    1    2  501    0 -0.72575700244E+02 -0.47910063803E+02 -0.90798432305E+03  0.96787757996E+03  0.32371109406E+03 0.  0.
         13    1    3    3    0    0 -0.57214412171E+01 -0.18220030331E+03 -0.56042440578E+03  0.58932605577E+03  0.00000000000E+00 0.  1.
          1    1    3    3  501    0 -0.66854259027E+02  0.13429023951E+03 -0.34755991726E+03  0.37855152419E+03  0.00000000000E+00 0.  1.
         21    1    1    2  502  501  0.72575700244E+02  0.47910063803E+02 -0.31608590894E+02  0.92529506093E+02  0.00000000000E+00 0.  1.
<mgrwt>
<rscale>  1 0.30000000E+03</rscale>
<asrwt>0</asrwt>
<pdfrwt beam="1">  1        1 0.21966259E+00 0.30000000E+03</pdfrwt>
<pdfrwt beam="2">0</pdfrwt>
<totfact> 0.82733532E+00</totfact>
</mgrwt>
</event>
<event>
 6    1  0.1940992E-004  0.3000000E+03  0.7818608E-02  0.1093470E+00
          1   -1    0    0  502    0  0.00000000000E+00  0.00000000000E+00  0.29756244398E+02  0.29756244398E+02  0.00000000000E+00 0.  1.
         13   -1    0    0    0    0 -0.00000000000E+00 -0.00000000000E+00 -0.10000000000E+04  0.10000000000E+04  0.00000000000E+00 0.  1.
    9000005    2    1    2  501    0  0.19927099356E+02  0.72328368452E+01 -0.92558749703E+03  0.98032361705E+03  0.32229299753E+03 0.  0.
         13    1    3    3    0    0  0.14625923412E+03 -0.33331501034E+02 -0.24777748847E+03  0.28964881550E+03  0.00000000000E+00 0.  1.
          1    1    3    3  501    0 -0.12633213477E+03  0.40564337880E+02 -0.67781000856E+03  0.69067480155E+03  0.00000000000E+00 0.  1.
         21    1    1    2  502  501 -0.19927099356E+02 -0.72328368452E+01 -0.44656258569E+02  0.49432627352E+02  0.00000000000E+00 0.  1.
<mgrwt>
<rscale>  1 0.30000000E+03</rscale>
<asrwt>0</asrwt>
<pdfrwt beam="1">  1        1 0.10820475E+00 0.30000000E+03</pdfrwt>
<pdfrwt beam="2">0</pdfrwt>
<totfact> 0.30454671E+01</totfact>
</mgrwt>
</event>
<event>
 6    1  0.1940992E-004  0.3000000E+03  0.7818608E-02  0.1093470E+00
          1   -1    0    0  502    0  0.00000000000E+00  0.00000000000E+00  0.29553208114E+02  0.29553208114E+02  0.00000000000E+00 0.  1.
         13   -1    0    0    0    0 -0.00000000000E+00 -0.00000000000E+00 -0.10000000000E+04  0.10000000000E+04  0.00000000000E+00 0.  1.
    9000005    2    1    2  501    0 -0.52114041611E+00 -0.12718391993E+02 -0.92811529091E+03  0.98534930493E+03  0.33068599973E+03 0.  0.
         13    1    3    3    0    0 -0.62159030600E+02 -0.33103183181E+02 -0.91673756404E+03  0.91943859346E+03  0.00000000000E+00 0.  1.
          3    1    3    3  501    0  0.61637890184E+02  0.20384791188E+02 -0.11377726878E+02  0.65910711474E+02  0.00000000000E+00 0.  1.
         21    1    1    2  502  501  0.52114041611E+00  0.12718391993E+02 -0.42331500971E+02  0.44203903184E+02  0.00000000000E+00 0.  1.
<mgrwt>
<rscale>  1 0.30000000E+03</rscale>
<asrwt>0</asrwt>
<pdfrwt beam="1">  1        1 0.10746644E+00 0.30000000E+03</pdfrwt>
<pdfrwt beam="2">0</pdfrwt>
<totfact> 0.30768825E+01</totfact>
</mgrwt>
</event>
<event>
 6    1  0.1940992E-004  0.3000000E+03  0.7818608E-02  0.1093470E+00
          1   -1    0    0  502    0  0.00000000000E+00  0.00000000000E+00  0.33407058853E+02  0.33407058853E+02  0.00000000000E+00 0.  1.
         13   -1    0    0    0    0 -0.00000000000E+00 -0.00000000000E+00 -0.10000000000E+04  0.10000000000E+04  0.00000000000E+00 0.  1.
    9000005    2    1    2  501    0  0.17821395561E+02  0.16162686877E+02 -0.92611652410E+03  0.98632017190E+03  0.33846245092E+03 0.  0.
         13    1    3    3    0    0 -0.43088808245E+02  0.14601443776E+03 -0.71541982285E+03  0.73143857182E+03  0.00000000000E+00 0.  1.
          1    1    3    3  501    0  0.60910203806E+02 -0.12985175088E+03 -0.21069670126E+03  0.25488160007E+03  0.00000000000E+00 0.  1.
         21    1    1    2  502  501 -0.17821395561E+02 -0.16162686877E+02 -0.40476417043E+02  0.47086886958E+02  0.00000000000E+00 0.  1.
<mgrwt>
<rscale>  1 0.30000000E+03</rscale>
<asrwt>0</asrwt>
<pdfrwt beam="1">  1        1 0.12148047E+00 0.30000000E+03</pdfrwt>
<pdfrwt beam="2">0</pdfrwt>
<totfact> 0.25501332E+01</totfact>
</mgrwt>
</event>
<event>
 6    1  0.1940992E-004  0.3000000E+03  0.7818608E-02  0.1093470E+00
          1   -1    0    0  502    0  0.00000000000E+00  0.00000000000E+00  0.45053363888E+02  0.45053363888E+02  0.00000000000E+00 0.  1.
         13   -1    0    0    0    0 -0.00000000000E+00 -0.00000000000E+00 -0.10000000000E+04  0.10000000000E+04  0.00000000000E+00 0.  1.
    9000005    2    1    2  501    0  0.50780915795E+02  0.42071754978E+02 -0.87292434572E+03  0.93980893364E+03  0.34189937764E+03 0.  0.
         13    1    3    3    0    0 -0.69999071688E+02  0.12208279233E+03 -0.16341211052E+03  0.21565619881E+03  0.00000000000E+00 0.  1.
          1    1    3    3  501    0  0.12077998748E+03 -0.80011037349E+02 -0.70951223520E+03  0.72415273483E+03  0.00000000000E+00 0.  1.
         21    1    1    2  502  501 -0.50780915795E+02 -0.42071754978E+02 -0.82022290394E+02  0.10524443024E+03  0.00000000000E+00 0.  1.
<mgrwt>
<rscale>  1 0.30000000E+03</rscale>
<asrwt>0</asrwt>
<pdfrwt beam="1">  1        1 0.16383076E+00 0.30000000E+03</pdfrwt>
<pdfrwt beam="2">0</pdfrwt>
<totfact> 0.15319269E+01</totfact>
</mgrwt>
</event>
<event>
 6    1  0.1940992E-004  0.3000000E+03  0.7818608E-02  0.1093470E+00
          1   -1    0    0  502    0  0.00000000000E+00  0.00000000000E+00  0.35641466240E+02  0.35641466240E+02  0.00000000000E+00 0.  1.
         13   -1    0    0    0    0 -0.00000000000E+00 -0.00000000000E+00 -0.10000000000E+04  0.10000000000E+04  0.00000000000E+00 0.  1.
    9000005    2    1    2  501    0  0.18547312112E+02  0.18291446311E+02 -0.96251898766E+03  0.10095270311E+04  0.30335366330E+03 0.  0.
         13    1    3    3    0    0 -0.29278054251E+02 -0.10621680798E+03 -0.14990323950E+03  0.18603815730E+03  0.00000000000E+00 0.  1.
          1    1    3    3  501    0  0.47825366363E+02  0.12450825429E+03 -0.81261574817E+03  0.82348887377E+03  0.00000000000E+00 0.  1.
         21    1    1    2  502  501 -0.18547312112E+02 -0.18291446311E+02 -0.18395460954E+01  0.26114435176E+02  0.00000000000E+00 0. -1.
<mgrwt>
<rscale>  1 0.30000000E+03</rscale>
<asrwt>0</asrwt>
<pdfrwt beam="1">  1        1 0.12960561E+00 0.30000000E+03</pdfrwt>
<pdfrwt beam="2">0</pdfrwt>
<totfact> 0.22993275E+01</totfact>
</mgrwt>
</event>
<event>
 6    1  0.1940992E-004  0.3000000E+03  0.7818608E-02  0.1093470E+00
          1   -1    0    0  502    0  0.00000000000E+00  0.00000000000E+00  0.32773279618E+02  0.32773279618E+02  0.00000000000E+00 0.  1.
         13   -1    0    0    0    0 -0.00000000000E+00 -0.00000000000E+00 -0.10000000000E+04  0.10000000000E+04  0.00000000000E+00 0.  1.
    9000005    2    1    2  501    0  0.25522324678E+02 -0.32861491838E+02 -0.88258124785E+03  0.93845402006E+03  0.31625151701E+03 0.  0.
         13    1    3    3    0    0 -0.24431583491E+02 -0.17058814437E+03 -0.46304175697E+03  0.49406971773E+03  0.00000000000E+00 0.  1.
          1    1    3    3  501    0  0.49953908169E+02  0.13772665253E+03 -0.41953949088E+03  0.44438430234E+03  0.00000000000E+00 0.  1.
         21    1    1    2  502  501 -0.25522324678E+02  0.32861491838E+02 -0.84645472531E+02  0.94319259554E+02  0.00000000000E+00 0.  1.
<mgrwt>
<rscale>  1 0.30000000E+03</rscale>
<asrwt>0</asrwt>
<pdfrwt beam="1">  1        1 0.11917581E+00 0.30000000E+03</pdfrwt>
<pdfrwt beam="2">0</pdfrwt>
<totfact> 0.26276988E+01</totfact>
</mgrwt>
</event>
<event>
 6    1  0.1940992E-004  0.3000000E+03  0.7818608E-02  0.1093470E+00
          1   -1    0    0  502    0  0.00000000000E+00  0.00000000000E+00  0.33144909189E+02  0.33144909189E+02  0.00000000000E+00 0.  1.
         13   -1    0    0    0    0 -0.00000000000E+00 -0.00000000000E+00 -0.10000000000E+04  0.10000000000E+04  0.00000000000E+00 0.  1.
    9000005    2    1    2  501    0  0.21518559000E+02  0.27882916315E+02 -0.93274825324E+03  0.98411653197E+03  0.31181010113E+03 0.  0.
         13    1    3    3    0    0  0.26936602318E+02  0.16732770698E+03 -0.59518586606E+03  0.61884598829E+03  0.00000000000E+00 0.  1.
          1    1    3    3  501    0 -0.54180433176E+01 -0.13944479067E+03 -0.33756238718E+03  0.36527054368E+03  0.00000000000E+00 0.  1.
         21    1    1    2  502  501 -0.21518559000E+02 -0.27882916315E+02 -0.34106837569E+02  0.49028377218E+02  0.00000000000E+00 0.  1.
<mgrwt>
<rscale>  1 0.30000000E+03</rscale>
<asrwt>0</asrwt>
<pdfrwt beam="1">  1        1 0.12052720E+00 0.30000000E+03</pdfrwt>
<pdfrwt beam="2">0</pdfrwt>
<totfact> 0.25818408E+01</totfact>
</mgrwt>
</event>
<event>
 6    1  0.1940992E-004  0.3000000E+03  0.7818608E-02  0.1093470E+00
          1   -1    0    0  502    0  0.00000000000E+00  0.00000000000E+00  0.74760983896E+02  0.74760983896E+02  0.00000000000E+00 0.  1.
         13   -1    0    0    0    0 -0.00000000000E+00 -0.00000000000E+00 -0.10000000000E+04  0.10000000000E+04  0.00000000000E+00 0.  1.
    9000005    2    1    2  501    0 -0.22050085072E+01  0.18506809170E+02 -0.97377997549E+03  0.10227649380E+04  0.31217513313E+03 0.  0.
         13    1    3    3    0    0  0.75111292380E+02  0.14117744033E+03 -0.62299084779E+03  0.64318766494E+03  0.00000000000E+00 0.  1.
          3    1    3    3  501    0 -0.77316300887E+02 -0.12267063116E+03 -0.35078912770E+03  0.37957727309E+03  0.00000000000E+00 0.  1.
         21    1    1    2  502  501  0.22050085072E+01 -0.18506809170E+02  0.48540959384E+02  0.51996045869E+02  0.00000000000E+00 0.  1.
<mgrwt>
<rscale>  1 0.30000000E+03</rscale>
<asrwt>0</asrwt>
<pdfrwt beam="1">  1        1 0.27185870E+00 0.30000000E+03</pdfrwt>
<pdfrwt beam="2">0</pdfrwt>
<totfact> 0.47127849E+00</totfact>
</mgrwt>
</event>
<event>
 6    1  0.1940992E-004  0.3000000E+03  0.7818608E-02  0.1093470E+00
          1   -1    0    0  502    0  0.00000000000E+00  0.00000000000E+00  0.26811137773E+02  0.26811137773E+02  0.00000000000E+00 0.  1.
         13   -1    0    0    0    0 -0.00000000000E+00 -0.00000000000E+00 -0.10000000000E+04  0.10000000000E+04  0.00000000000E+00 0.  1.
    9000005    2    1    2  501    0 -0.11638733539E+02 -0.15707463844E+02 -0.94704063529E+03  0.99416279462E+03  0.30181370541E+03 0.  0.
         13    1    3    3    0    0  0.74697876759E+02 -0.37894195458E+02 -0.60923611783E+02  0.10357330406E+03  0.00000000000E+00 0.  1.
          1    1    3    3  501    0 -0.86336610297E+02  0.22186731615E+02 -0.88611702351E+03  0.89058949056E+03  0.00000000000E+00 0.  1.
         21    1    1    2  502  501  0.11638733539E+02  0.15707463844E+02 -0.26148226933E+02  0.32648343151E+02  0.00000000000E+00 0. -1.
<mgrwt>
<rscale>  1 0.30000000E+03</rscale>
<asrwt>0</asrwt>
<pdfrwt beam="1">  1        1 0.97495252E-01 0.30000000E+03</pdfrwt>
<pdfrwt beam="2">0</pdfrwt>
<totfact> 0.35515100E+01</totfact>
</mgrwt>
</event>
<event>
 6    1  0.1940992E-004  0.3000000E+03  0.7818608E-02  0.1093470E+00
          1   -1    0    0  502    0  0.00000000000E+00  0.00000000000E+00  0.29794387181E+02  0.29794387181E+02  0.00000000000E+00 0.  1.
         13   -1    0    0    0    0 -0.00000000000E+00 -0.00000000000E+00 -0.10000000000E+04  0.10000000000E+04  0.00000000000E+00 0.  1.
    9000005    2    1    2  501    0 -0.12432165111E+02  0.67732241713E+01 -0.94510986374E+03  0.10009806419E+04  0.32943763542E+03 0.  0.
         13    1    3    3    0    0  0.15674628027E+03  0.76474416812E+00 -0.52958668210E+03  0.55229705328E+03  0.00000000000E+00 0.  1.
          3    1    3    3  501    0 -0.16917844538E+03  0.60084800032E+01 -0.41552318164E+03  0.44868358862E+03  0.00000000000E+00 0.  1.
         21    1    1    2  502  501  0.12432165111E+02 -0.67732241713E+01 -0.25095749084E+02  0.28813745281E+02  0.00000000000E+00 0.  1.
<mgrwt>
<rscale>  1 0.30000000E+03</rscale>
<asrwt>0</asrwt>
<pdfrwt beam="1">  1        1 0.10834345E+00 0.30000000E+03</pdfrwt>
<pdfrwt beam="2">0</pdfrwt>
<totfact> 0.30396165E+01</totfact>
</mgrwt>
</event>
<event>
 6    1  0.1940992E-004  0.3000000E+03  0.7818608E-02  0.1093470E+00
          1   -1    0    0  502    0  0.00000000000E+00  0.00000000000E+00  0.37861351058E+02  0.37861351058E+02  0.00000000000E+00 0.  1.
         13   -1    0    0    0    0 -0.00000000000E+00 -0.00000000000E+00 -0.10000000000E+04  0.10000000000E+04  0.00000000000E+00 0.  1.
    9000005    2    1    2  501    0  0.50771919795E+02  0.18549326899E+01 -0.89882367079E+03  0.95668244325E+03  0.32369133048E+03 0.  0.
         13    1    3    3    0    0 -0.43064312316E+02  0.56689124636E+02 -0.23991536276E+02  0.75125133345E+02  0.00000000000E+00 0.  1.
          1    1    3    3  501    0  0.93836232111E+02 -0.54834191946E+02 -0.87483213452E+03  0.88155730990E+03  0.00000000000E+00 0.  1.
         21    1    1    2  502  501 -0.50771919795E+02 -0.18549326899E+01 -0.63314978151E+02  0.81178907810E+02  0.00000000000E+00 0.  1.
<mgrwt>
<rscale>  1 0.30000000E+03</rscale>
<asrwt>0</asrwt>
<pdfrwt beam="1">  1        1 0.13767793E+00 0.30000000E+03</pdfrwt>
<pdfrwt beam="2">0</pdfrwt>
<totfact> 0.20809774E+01</totfact>
</mgrwt>
</event>
<event>
 6    1  0.1940992E-004  0.3000000E+03  0.7818608E-02  0.1093470E+00
          1   -1    0    0  502    0  0.00000000000E+00  0.00000000000E+00  0.36336583589E+02  0.36336583589E+02  0.00000000000E+00 0.  1.
         13   -1    0    0    0    0 -0.00000000000E+00 -0.00000000000E+00 -0.10000000000E+04  0.10000000000E+04  0.00000000000E+00 0.  1.
    9000005    2    1    2  501    0  0.24611850816E+02  0.50853943617E+02 -0.85813393718E+03  0.91663554864E+03  0.31723021310E+03 0.  0.
         13    1    3    3    0    0 -0.13389207809E+03  0.38080285843E+02 -0.23140006871E+03  0.27004293833E+03  0.00000000000E+00 0.  1.
          3    1    3    3  501    0  0.15850392890E+03  0.12773657774E+02 -0.62673386847E+03  0.64659261031E+03  0.00000000000E+00 0.  1.
         21    1    1    2  502  501 -0.24611850816E+02 -0.50853943617E+02 -0.10552947923E+03  0.11970103495E+03  0.00000000000E+00 0.  1.
<mgrwt>
<rscale>  1 0.30000000E+03</rscale>
<asrwt>0</asrwt>
<pdfrwt beam="1">  1        1 0.13213331E+00 0.30000000E+03</pdfrwt>
<pdfrwt beam="2">0</pdfrwt>
<totfact> 0.22278365E+01</totfact>
</mgrwt>
</event>
<event>
 6    1  0.1940992E-004  0.3000000E+03  0.7818608E-02  0.1093470E+00
          1   -1    0    0  502    0  0.00000000000E+00  0.00000000000E+00  0.34708223837E+02  0.34708223837E+02  0.00000000000E+00 0.  1.
         13   -1    0    0    0    0 -0.00000000000E+00 -0.00000000000E+00 -0.10000000000E+04  0.10000000000E+04  0.00000000000E+00 0.  1.
    9000005    2    1    2  501    0  0.16536436688E+02  0.11898902630E+02 -0.94790928957E+03  0.10079278493E+04  0.34201095077E+03 0.  0.
         13    1    3    3    0    0  0.26286438145E+02  0.37060423503E+02 -0.97121198956E+03  0.97227423111E+03  0.00000000000E+00 0.  1.
          3    1    3    3  501    0 -0.97500014574E+01 -0.25161520873E+02  0.23302699984E+02  0.35653618156E+02  0.00000000000E+00 0.  1.
         21    1    1    2  502  501 -0.16536436688E+02 -0.11898902630E+02 -0.17382486592E+02  0.26780374573E+02  0.00000000000E+00 0. -1.
<mgrwt>
<rscale>  1 0.30000000E+03</rscale>
<asrwt>0</asrwt>
<pdfrwt beam="1">  1        1 0.12621199E+00 0.30000000E+03</pdfrwt>
<pdfrwt beam="2">0</pdfrwt>
<totfact> 0.24000551E+01</totfact>
</mgrwt>
</event>
<event>
 6    1  0.1940992E-004  0.3000000E+03  0.7818608E-02  0.1093470E+00
          1   -1    0    0  502    0  0.00000000000E+00  0.00000000000E+00  0.30452258792E+02  0.30452258792E+02  0.00000000000E+00 0.  1.
         13   -1    0    0    0    0 -0.00000000000E+00 -0.00000000000E+00 -0.10000000000E+04  0.10000000000E+04  0.00000000000E+00 0.  1.
    9000005    2    1    2  501    0  0.57638749633E+01 -0.15614711870E+02 -0.95366690357E+03  0.10074469880E+04  0.32433289862E+03 0.  0.
         13    1    3    3    0    0  0.76700856875E+02 -0.13420710437E+03 -0.28079381608E+03  0.32053039709E+03  0.00000000000E+00 0.  1.
          1    1    3    3  501    0 -0.70936981911E+02  0.11859239250E+03 -0.67287308749E+03  0.68691659088E+03  0.00000000000E+00 0.  1.
         21    1    1    2  502  501 -0.57638749633E+01  0.15614711870E+02 -0.15880837637E+02  0.23005270819E+02  0.00000000000E+00 0.  1.
<mgrwt>
<rscale>  1 0.30000000E+03</rscale>
<asrwt>0</asrwt>
<pdfrwt beam="1">  1        1 0.11073572E+00 0.30000000E+03</pdfrwt>
<pdfrwt beam="2">0</pdfrwt>
<totfact> 0.29411792E+01</totfact>
</mgrwt>
</event>
<event>
 6    1  0.1940992E-004  0.3000000E+03  0.7818608E-02  0.1093470E+00
          1   -1    0    0  502    0  0.00000000000E+00  0.00000000000E+00  0.45078915267E+02  0.45078915267E+02  0.00000000000E+00 0.  1.
         13   -1    0    0    0    0 -0.00000000000E+00 -0.00000000000E+00 -0.10000000000E+04  0.10000000000E+04  0.00000000000E+00 0.  1.
    9000005    2    1    2  501    0 -0.66909351405E+02  0.14427960275E+02 -0.90295535886E+03  0.95914019286E+03  0.31612735112E+03 0.  0.
         13    1    3    3    0    0 -0.15966001230E+03 -0.75867461369E+02 -0.66682308875E+03  0.68985521880E+03  0.00000000000E+00 0.  1.
          3    1    3    3  501    0  0.92750660893E+02  0.90295421645E+02 -0.23613227011E+03  0.26928497405E+03  0.00000000000E+00 0.  1.
         21    1    1    2  502  501  0.66909351405E+02 -0.14427960275E+02 -0.51965725878E+02  0.85938722409E+02  0.00000000000E+00 0.  1.
<mgrwt>
<rscale>  1 0.30000000E+03</rscale>
<asrwt>0</asrwt>
<pdfrwt beam="1">  1        1 0.16392367E+00 0.30000000E+03</pdfrwt>
<pdfrwt beam="2">0</pdfrwt>
<totfact> 0.15303107E+01</totfact>
</mgrwt>
</event>
<event>
 6    1  0.1940992E-004  0.3000000E+03  0.7818608E-02  0.1093470E+00
          1   -1    0    0  502    0  0.00000000000E+00  0.00000000000E+00  0.34282179624E+02  0.34282179624E+02  0.00000000000E+00 0.  1.
         13   -1    0    0    0    0 -0.00000000000E+00 -0.00000000000E+00 -0.10000000000E+04  0.10000000000E+04  0.00000000000E+00 0.  1.
    9000005    2    1    2  501    0  0.98031502872E+01 -0.92123862033E+01 -0.96835788750E+03  0.10205730670E+04  0.32198046048E+03 0.  0.
         13    1    3    3    0    0 -0.82327509389E+02  0.11335921796E+03 -0.67684236044E+03  0.69119006937E+03  0.00000000000E+00 0.  1.
          1    1    3    3  501    0  0.92130659676E+02 -0.12257160416E+03 -0.29151552706E+03  0.32938299761E+03  0.00000000000E+00 0.  1.
         21    1    1    2  502  501 -0.98031502872E+01  0.92123862033E+01  0.26400671279E+01  0.13709112646E+02  0.00000000000E+00 0. -1.
<mgrwt>
<rscale>  1 0.30000000E+03</rscale>
<asrwt>0</asrwt>
<pdfrwt beam="1">  1        1 0.12466273E+00 0.30000000E+03</pdfrwt>
<pdfrwt beam="2">0</pdfrwt>
<totfact> 0.24479158E+01</totfact>
</mgrwt>
</event>
<event>
 6    1  0.1940992E-004  0.3000000E+03  0.7818608E-02  0.1093470E+00
          1   -1    0    0  502    0  0.00000000000E+00  0.00000000000E+00  0.27679523807E+02  0.27679523807E+02  0.00000000000E+00 0.  1.
         13   -1    0    0    0    0 -0.00000000000E+00 -0.00000000000E+00 -0.10000000000E+04  0.10000000000E+04  0.00000000000E+00 0.  1.
    9000005    2    1    2  501    0  0.75543727327E+01  0.10032903269E+02 -0.97271289854E+03  0.10151144257E+04  0.29005031731E+03 0.  0.
         13    1    3    3    0    0 -0.11702517233E+03  0.46616614896E+02 -0.72064125901E+03  0.73156805830E+03  0.00000000000E+00 0.  1.
          3    1    3    3  501    0  0.12457954507E+03 -0.36583711627E+02 -0.25207163953E+03  0.28354636739E+03  0.00000000000E+00 0.  1.
         21    1    1    2  502  501 -0.75543727327E+01 -0.10032903269E+02  0.39242234250E+00  0.12565098117E+02  0.00000000000E+00 0. -1.
<mgrwt>
<rscale>  1 0.30000000E+03</rscale>
<asrwt>0</asrwt>
<pdfrwt beam="1">  1        1 0.10065303E+00 0.30000000E+03</pdfrwt>
<pdfrwt beam="2">0</pdfrwt>
<totfact> 0.33902434E+01</totfact>
</mgrwt>
</event>
<event>
 6    1  0.1940992E-004  0.3000000E+03  0.7818608E-02  0.1093470E+00
          1   -1    0    0  502    0  0.00000000000E+00  0.00000000000E+00  0.66346060178E+02  0.66346060178E+02  0.00000000000E+00 0.  1.
         13   -1    0    0    0    0 -0.00000000000E+00 -0.00000000000E+00 -0.10000000000E+04  0.10000000000E+04  0.00000000000E+00 0.  1.
    9000005    2    1    2  501    0 -0.56381429509E+02  0.78942164492E+02 -0.89043904428E+03  0.96014691647E+03  0.34581740658E+03 0.  0.
         13    1    3    3    0    0  0.26987815564E+01 -0.13247920185E+03 -0.24709985165E+03  0.28038608922E+03  0.00000000000E+00 0.  1.
          1    1    3    3  501    0 -0.59080211066E+02  0.21142136634E+03 -0.64333919263E+03  0.67976082724E+03  0.00000000000E+00 0.  1.
         21    1    1    2  502  501  0.56381429509E+02 -0.78942164492E+02 -0.43214895542E+02  0.10619914371E+03  0.00000000000E+00 0. -1.
<mgrwt>
<rscale>  1 0.30000000E+03</rscale>
<asrwt>0</asrwt>
<pdfrwt beam="1">  1        1 0.24125891E+00 0.30000000E+03</pdfrwt>
<pdfrwt beam="2">0</pdfrwt>
<totfact> 0.65541737E+00</totfact>
</mgrwt>
</event>
<event>
 6    1  0.1940992E-004  0.3000000E+03  0.7818608E-02  0.1093470E+00
          1   -1    0    0  502    0  0.00000000000E+00  0.00000000000E+00  0.32311976834E+02  0.32311976834E+02  0.00000000000E+00 0.  1.
         13   -1    0    0    0    0 -0.00000000000E+00 -0.00000000000E+00 -0.10000000000E+04  0.10000000000E+04  0.00000000000E+00 0.  1.
    9000005    2    1    2  501    0 -0.64249078379E+01  0.15403550862E+02 -0.95794297933E+03  0.10129854485E+04  0.32894713605E+03 0.  0.
         13    1    3    3    0    0 -0.95352099482E+02 -0.42085476090E+02 -0.87388814498E+02  0.13601476050E+03  0.00000000000E+00 0.  1.
          3    1    3    3  501    0  0.88927191644E+02  0.57489026952E+02 -0.87055416483E+03  0.87697068795E+03  0.00000000000E+00 0.  1.
         21    1    1    2  502  501  0.64249078379E+01 -0.15403550862E+02 -0.97450438406E+01  0.19326528383E+02  0.00000000000E+00 0.  1.
<mgrwt>
<rscale>  1 0.30000000E+03</rscale>
<asrwt>0</asrwt>
<pdfrwt beam="1">  1        1 0.11749835E+00 0.30000000E+03</pdfrwt>
<pdfrwt beam="2">0</pdfrwt>
<totfact> 0.26861674E+01</totfact>
</mgrwt>
</event>
<event>
 6    1  0.1940992E-004  0.3000000E+03  0.7818608E-02  0.1093470E+00
          1   -1    0    0  502    0  0.00000000000E+00  0.00000000000E+00  0.94556576947E+02  0.94556576947E+02  0.00000000000E+00 0.  1.
         13   -1    0    0    0    0 -0.00000000000E+00 -0.00000000000E+00 -0.10000000000E+04  0.10000000000E+04  0.00000000000E+00 0.  1.
    9000005    2    1    2  501    0  0.19862869034E+02  0.27445859996E+02 -0.96871446234E+03  0.10227858781E+04  0.32639766260E+03 0.  0.
         13    1    3    3    0    0  0.10634039299E+03 -0.82944652480E+02 -0.75648609003E+03  0.76841349479E+03  0.00000000000E+00 0.  1.
          1    1    3    3  501    0 -0.86477523956E+02  0.11039051248E+03 -0.21222837231E+03  0.25437238334E+03  0.00000000000E+00 0.  1.
         21    1    1    2  502  501 -0.19862869034E+02 -0.27445859996E+02  0.63271039285E+02  0.71770698821E+02  0.00000000000E+00 0.  1.
<mgrwt>
<rscale>  1 0.30000000E+03</rscale>
<asrwt>0</asrwt>
<pdfrwt beam="1">  1        1 0.34384282E+00 0.30000000E+03</pdfrwt>
<pdfrwt beam="2">0</pdfrwt>
<totfact> 0.21167443E+00</totfact>
</mgrwt>
</event>
<event>
 6    1  0.1940992E-004  0.3000000E+03  0.7818608E-02  0.1093470E+00
          1   -1    0    0  502    0  0.00000000000E+00  0.00000000000E+00  0.42997705605E+02  0.42997705605E+02  0.00000000000E+00 0.  1.
         13   -1    0    0    0    0 -0.00000000000E+00 -0.00000000000E+00 -0.10000000000E+04  0.10000000000E+04  0.00000000000E+00 0.  1.
    9000005    2    1    2  501    0  0.38828797586E+02  0.11673981454E+02 -0.95922728524E+03  0.10023909580E+04  0.28814352435E+03 0.  0.
         13    1    3    3    0    0 -0.72304492090E+02  0.11400052605E+03 -0.36195175628E+03  0.38630704548E+03  0.00000000000E+00 0.  1.
          3    1    3    3  501    0  0.11113328968E+03 -0.10232654459E+03 -0.59727552896E+03  0.61608391254E+03  0.00000000000E+00 0.  1.
         21    1    1    2  502  501 -0.38828797586E+02 -0.11673981454E+02  0.22249908408E+01  0.40606747582E+02  0.00000000000E+00 0.  1.
<mgrwt>
<rscale>  1 0.30000000E+03</rscale>
<asrwt>0</asrwt>
<pdfrwt beam="1">  1        1 0.15635562E+00 0.30000000E+03</pdfrwt>
<pdfrwt beam="2">0</pdfrwt>
<totfact> 0.16686799E+01</totfact>
</mgrwt>
</event>
<event>
 6    1  0.1940992E-004  0.3000000E+03  0.7818608E-02  0.1093470E+00
          1   -1    0    0  502    0  0.00000000000E+00  0.00000000000E+00  0.29656961635E+02  0.29656961635E+02  0.00000000000E+00 0.  1.
         13   -1    0    0    0    0 -0.00000000000E+00 -0.00000000000E+00 -0.10000000000E+04  0.10000000000E+04  0.00000000000E+00 0.  1.
    9000005    2    1    2  501    0  0.10904567722E+02  0.81194678469E+01 -0.96419147767E+03  0.10147345941E+04  0.31596875699E+03 0.  0.
         13    1    3    3    0    0 -0.80475739529E+02 -0.12381124368E+03 -0.57710246214E+03  0.59569524132E+03  0.00000000000E+00 0.  1.
          3    1    3    3  501    0  0.91380307251E+02  0.13193071153E+03 -0.38708901553E+03  0.41903935273E+03  0.00000000000E+00 0.  1.
         21    1    1    2  502  501 -0.10904567722E+02 -0.81194678469E+01 -0.61515606925E+01  0.14922367583E+02  0.00000000000E+00 0. -1.
<mgrwt>
<rscale>  1 0.30000000E+03</rscale>
<asrwt>0</asrwt>
<pdfrwt beam="1">  1        1 0.10784372E+00 0.30000000E+03</pdfrwt>
<pdfrwt beam="2">0</pdfrwt>
<totfact> 0.30607712E+01</totfact>
</mgrwt>
</event>
<event>
 6    1  0.1940992E-004  0.3000000E+03  0.7818608E-02  0.1093470E+00
          1   -1    0    0  502    0  0.00000000000E+00  0.00000000000E+00  0.31942747382E+02  0.31942747382E+02  0.00000000000E+00 0.  1.
         13   -1    0    0    0    0 -0.00000000000E+00 -0.00000000000E+00 -0.10000000000E+04  0.10000000000E+04  0.00000000000E+00 0.  1.
    9000005    2    1    2  501    0 -0.99599700070E+01  0.98735654822E-01 -0.96308600998E+03  0.10208106315E+04  0.33826095246E+03 0.  0.
         13    1    3    3    0    0  0.94784393338E+02  0.13320524799E+03 -0.56529306519E+03  0.58845897807E+03  0.00000000000E+00 0.  1.
          1    1    3    3  501    0 -0.10474436335E+03 -0.13310651234E+03 -0.39779294479E+03  0.43235165341E+03  0.00000000000E+00 0.  1.
         21    1    1    2  502  501  0.99599700070E+01 -0.98735654822E-01 -0.49712426403E+01  0.11132115911E+02  0.00000000000E+00 0. -1.
<mgrwt>
<rscale>  1 0.30000000E+03</rscale>
<asrwt>0</asrwt>
<pdfrwt beam="1">  1        1 0.11615569E+00 0.30000000E+03</pdfrwt>
<pdfrwt beam="2">0</pdfrwt>
<totfact> 0.27342575E+01</totfact>
</mgrwt>
</event>
<event>
 6    1  0.1940992E-004  0.3000000E+03  0.7818608E-02  0.1093470E+00
          1   -1    0    0  502    0  0.00000000000E+00  0.00000000000E+00  0.43389188133E+02  0.43389188133E+02  0.00000000000E+00 0.  1.
         13   -1    0    0    0    0 -0.00000000000E+00 -0.00000000000E+00 -0.10000000000E+04  0.10000000000E+04  0.00000000000E+00 0.  1.
    9000005    2    1    2  501    0 -0.51607886604E+01  0.11260250406E+02 -0.97208246057E+03  0.10235700335E+04  0.32030903244E+03 0.  0.
         13    1    3    3    0    0  0.52273174095E+02 -0.13660665651E+03 -0.62606602818E+03  0.64292498394E+03  0.00000000000E+00 0.  1.
          1    1    3    3  501    0 -0.57433962755E+02  0.14786690691E+03 -0.34601643239E+03  0.38064504951E+03  0.00000000000E+00 0.  1.
         21    1    1    2  502  501  0.51607886604E+01 -0.11260250406E+02  0.15471648698E+02  0.19819154680E+02  0.00000000000E+00 0. -1.
<mgrwt>
<rscale>  1 0.30000000E+03</rscale>
<asrwt>0</asrwt>
<pdfrwt beam="1">  1        1 0.15777920E+00 0.30000000E+03</pdfrwt>
<pdfrwt beam="2">0</pdfrwt>
<totfact> 0.16415686E+01</totfact>
</mgrwt>
</event>
<event>
 6    1  0.1940992E-004  0.3000000E+03  0.7818608E-02  0.1093470E+00
          1   -1    0    0  502    0  0.00000000000E+00  0.00000000000E+00  0.27727974300E+02  0.27727974300E+02  0.00000000000E+00 0.  1.
         13   -1    0    0    0    0 -0.00000000000E+00 -0.00000000000E+00 -0.10000000000E+04  0.10000000000E+04  0.00000000000E+00 0.  1.
    9000005    2    1    2  501    0  0.10884440866E+02  0.51787536417E+01 -0.95821481278E+03  0.10092105291E+04  0.31652010053E+03 0.  0.
         13    1    3    3    0    0 -0.12560743737E+03 -0.11528959112E+02 -0.74428428787E+03  0.75489684487E+03  0.00000000000E+00 0.  1.
          1    1    3    3  501    0  0.13649187824E+03  0.16707712754E+02 -0.21393052491E+03  0.25431368421E+03  0.00000000000E+00 0.  1.
         21    1    1    2  502  501 -0.10884440866E+02 -0.51787536417E+01 -0.14057212921E+02  0.18517445217E+02  0.00000000000E+00 0.  1.
<mgrwt>
<rscale>  1 0.30000000E+03</rscale>
<asrwt>0</asrwt>
<pdfrwt beam="1">  1        1 0.10082921E+00 0.30000000E+03</pdfrwt>
<pdfrwt beam="2">0</pdfrwt>
<totfact> 0.33815657E+01</totfact>
</mgrwt>
</event>
<event>
 6    1  0.1940992E-004  0.3000000E+03  0.7818608E-02  0.1093470E+00
          1   -1    0    0  502    0  0.00000000000E+00  0.00000000000E+00  0.39987082844E+02  0.39987082844E+02  0.00000000000E+00 0.  1.
         13   -1    0    0    0    0 -0.00000000000E+00 -0.00000000000E+00 -0.10000000000E+04  0.10000000000E+04  0.00000000000E+00 0.  1.
    9000005    2    1    2  501    0 -0.87312264669E+01 -0.12336357641E+02 -0.96756433664E+03  0.10230919956E+04  0.33212658123E+03 0.  0.
         13    1    3    3    0    0 -0.11515451158E+03  0.67776179024E+02 -0.78944119393E+03  0.80066945156E+03  0.00000000000E+00 0.  1.
          3    1    3    3  501    0  0.10642328511E+03 -0.80112536665E+02 -0.17812314271E+03  0.22242254408E+03  0.00000000000E+00 0.  1.
         21    1    1    2  502  501  0.87312264669E+01  0.12336357641E+02  0.75514194874E+01  0.16895087207E+02  0.00000000000E+00 0. -1.
<mgrwt>
<rscale>  1 0.30000000E+03</rscale>
<asrwt>0</asrwt>
<pdfrwt beam="1">  1        1 0.14540788E+00 0.30000000E+03</pdfrwt>
<pdfrwt beam="2">0</pdfrwt>
<totfact> 0.18964115E+01</totfact>
</mgrwt>
</event>
<event>
 6    1  0.1940992E-004  0.3000000E+03  0.7818608E-02  0.1093470E+00
          1   -1    0    0  502    0  0.00000000000E+00  0.00000000000E+00  0.29994617344E+02  0.29994617344E+02  0.00000000000E+00 0.  1.
         13   -1    0    0    0    0 -0.00000000000E+00 -0.00000000000E+00 -0.10000000000E+04  0.10000000000E+04  0.00000000000E+00 0.  1.
    9000005    2    1    2  501    0 -0.26572911803E+01 -0.24466106563E+02 -0.87464207241E+03  0.93150699117E+03  0.31953226475E+03 0.  0.
         13    1    3    3    0    0 -0.20562535490E+02  0.30517036234E+00 -0.89470777341E+03  0.89494408250E+03  0.00000000000E+00 0.  1.
          3    1    3    3  501    0  0.17905244310E+02 -0.24771276925E+02  0.20065701003E+02  0.36562908679E+02  0.00000000000E+00 0.  1.
         21    1    1    2  502  501  0.26572911803E+01  0.24466106563E+02 -0.95363310249E+02  0.98487626169E+02  0.00000000000E+00 0.  1.
<mgrwt>
<rscale>  1 0.30000000E+03</rscale>
<asrwt>0</asrwt>
<pdfrwt beam="1">  1        1 0.10907157E+00 0.30000000E+03</pdfrwt>
<pdfrwt beam="2">0</pdfrwt>
<totfact> 0.30091659E+01</totfact>
</mgrwt>
</event>
<event>
 6    1  0.1940992E-004  0.3000000E+03  0.7818608E-02  0.1093470E+00
          1   -1    0    0  502    0  0.00000000000E+00  0.00000000000E+00  0.32447934732E+02  0.32447934732E+02  0.00000000000E+00 0.  1.
         13   -1    0    0    0    0 -0.00000000000E+00 -0.00000000000E+00 -0.10000000000E+04  0.10000000000E+04  0.00000000000E+00 0.  1.
    9000005    2    1    2  501    0 -0.11074577533E+02  0.12230034981E+02 -0.91237477811E+03  0.97485667636E+03  0.34299501991E+03 0.  0.
         13    1    3    3    0    0 -0.76255215262E+02 -0.89530546791E+02 -0.80393125356E+03  0.81248756121E+03  0.00000000000E+00 0.  1.
          1    1    3    3  501    0  0.65180637729E+02  0.10176058177E+03 -0.10844352455E+03  0.16236911515E+03  0.00000000000E+00 0.  1.
         21    1    1    2  502  501  0.11074577533E+02 -0.12230034981E+02 -0.55177287158E+02  0.57591258376E+02  0.00000000000E+00 0.  1.
<mgrwt>
<rscale>  1 0.30000000E+03</rscale>
<asrwt>0</asrwt>
<pdfrwt beam="1">  1        1 0.11799274E+00 0.30000000E+03</pdfrwt>
<pdfrwt beam="2">0</pdfrwt>
<totfact> 0.26687525E+01</totfact>
</mgrwt>
</event>
<event>
 6    1  0.1940992E-004  0.3000000E+03  0.7818608E-02  0.1093470E+00
          1   -1    0    0  502    0  0.00000000000E+00  0.00000000000E+00  0.39127988939E+02  0.39127988939E+02  0.00000000000E+00 0.  1.
         13   -1    0    0    0    0 -0.00000000000E+00 -0.00000000000E+00 -0.10000000000E+04  0.10000000000E+04  0.00000000000E+00 0.  1.
    9000005    2    1    2  501    0 -0.34763765631E+02  0.14373830383E+02 -0.94957109867E+03  0.99984902483E+03  0.31080166445E+03 0.  0.
         13    1    3    3    0    0 -0.16967001901E+03  0.21399998106E+02 -0.63223951979E+03  0.65496006417E+03  0.00000000000E+00 0.  1.
          1    1    3    3  501    0  0.13490625338E+03 -0.70261677235E+01 -0.31733157888E+03  0.34488896066E+03  0.00000000000E+00 0.  1.
         21    1    1    2  502  501  0.34763765631E+02 -0.14373830383E+02 -0.11300912395E+02  0.39278964112E+02  0.00000000000E+00 0.  1.
<mgrwt>
<rscale>  1 0.30000000E+03</rscale>
<asrwt>0</asrwt>
<pdfrwt beam="1">  1        1 0.14228390E+00 0.30000000E+03</pdfrwt>
<pdfrwt beam="2">0</pdfrwt>
<totfact> 0.19683959E+01</totfact>
</mgrwt>
</event>
<event>
 6    1  0.1940992E-004  0.3000000E+03  0.7818608E-02  0.1093470E+00
          1   -1    0    0  502    0  0.00000000000E+00  0.00000000000E+00  0.32610264028E+02  0.32610264028E+02  0.00000000000E+00 0.  1.
         13   -1    0    0    0    0 -0.00000000000E+00 -0.00000000000E+00 -0.10000000000E+04  0.10000000000E+04  0.00000000000E+00 0.  1.
    9000005    2    1    2  501    0  0.55570251970E+01 -0.96579185878E+01 -0.97247835033E+03  0.10203607776E+04  0.30870344794E+03 0.  0.
         13    1    3    3    0    0 -0.43988568687E+02 -0.11421326363E+03 -0.16938553213E+03  0.20897636771E+03  0.00000000000E+00 0.  1.
          1    1    3    3  501    0  0.49545593884E+02  0.10455534504E+03 -0.80309281820E+03  0.81138440994E+03  0.00000000000E+00 0.  1.
         21    1    1    2  502  501 -0.55570251970E+01  0.96579185878E+01  0.50886143618E+01  0.12249486382E+02  0.00000000000E+00 0.  1.
<mgrwt>
<rscale>  1 0.30000000E+03</rscale>
<asrwt>0</asrwt>
<pdfrwt beam="1">  1        1 0.11858303E+00 0.30000000E+03</pdfrwt>
<pdfrwt beam="2">0</pdfrwt>
<totfact> 0.26481610E+01</totfact>
</mgrwt>
</event>
<event>
 6    1  0.1940992E-004  0.3000000E+03  0.7818608E-02  0.1093470E+00
          1   -1    0    0  502    0  0.00000000000E+00  0.00000000000E+00  0.32113941117E+02  0.32113941117E+02  0.00000000000E+00 0.  1.
         13   -1    0    0    0    0 -0.00000000000E+00 -0.00000000000E+00 -0.10000000000E+04  0.10000000000E+04  0.00000000000E+00 0.  1.
    9000005    2    1    2  501    0 -0.17838548995E+02  0.52597307132E+01 -0.96326009446E+03  0.10129494389E+04  0.31281092955E+03 0.  0.
         13    1    3    3    0    0 -0.10036796444E+03 -0.10230077355E+03 -0.26134332352E+03  0.29805957341E+03  0.00000000000E+00 0.  1.
          3    1    3    3  501    0  0.82529415440E+02  0.10756050426E+03 -0.70191677094E+03  0.71488986552E+03  0.00000000000E+00 0.  1.
         21    1    1    2  502  501  0.17838548995E+02 -0.52597307132E+01 -0.46259644251E+01  0.19164502192E+02  0.00000000000E+00 0.  1.
<mgrwt>
<rscale>  1 0.30000000E+03</rscale>
<asrwt>0</asrwt>
<pdfrwt beam="1">  1        1 0.11677821E+00 0.30000000E+03</pdfrwt>
<pdfrwt beam="2">0</pdfrwt>
<totfact> 0.27118140E+01</totfact>
</mgrwt>
</event>
<event>
 6    1  0.1940992E-004  0.3000000E+03  0.7818608E-02  0.1093470E+00
          1   -1    0    0  502    0  0.00000000000E+00  0.00000000000E+00  0.35684293236E+02  0.35684293236E+02  0.00000000000E+00 0.  1.
         13   -1    0    0    0    0 -0.00000000000E+00 -0.00000000000E+00 -0.10000000000E+04  0.10000000000E+04  0.00000000000E+00 0.  1.
    9000005    2    1    2  501    0 -0.16804065904E+02 -0.25011324408E+02 -0.95727006826E+03  0.10047394390E+04  0.30368966691E+03 0.  0.
         13    1    3    3    0    0  0.41066832713E+02 -0.34097054188E+00 -0.93806463312E+03  0.93896318188E+03  0.00000000000E+00 0.  1.
          3    1    3    3  501    0 -0.57870898617E+02 -0.24670353867E+02 -0.19205435136E+02  0.65776257156E+02  0.00000000000E+00 0.  1.
         21    1    1    2  502  501  0.16804065904E+02  0.25011324408E+02 -0.70456385071E+01  0.30944854201E+02  0.00000000000E+00 0.  1.
<mgrwt>
<rscale>  1 0.30000000E+03</rscale>
<asrwt>0</asrwt>
<pdfrwt beam="1">  1        1 0.12976134E+00 0.30000000E+03</pdfrwt>
<pdfrwt beam="2">0</pdfrwt>
<totfact> 0.22948372E+01</totfact>
</mgrwt>
</event>
<event>
 6    1  0.1940992E-004  0.3000000E+03  0.7818608E-02  0.1093470E+00
          1   -1    0    0  502    0  0.00000000000E+00  0.00000000000E+00  0.29912945040E+02  0.29912945040E+02  0.00000000000E+00 0.  1.
         13   -1    0    0    0    0 -0.00000000000E+00 -0.00000000000E+00 -0.10000000000E+04  0.10000000000E+04  0.00000000000E+00 0.  1.
    9000005    2    1    2  501    0  0.94786295661E+01  0.42970065125E+01 -0.96681675892E+03  0.10190040716E+04  0.32175509932E+03 0.  0.
         13    1    3    3    0    0 -0.35666867204E+02  0.12497130220E+03 -0.18174786581E+03  0.22343285012E+03  0.00000000000E+00 0.  1.
          3    1    3    3  501    0  0.45145496770E+02 -0.12067429568E+03 -0.78506889312E+03  0.79557122148E+03  0.00000000000E+00 0.  1.
         21    1    1    2  502  501 -0.94786295661E+01 -0.42970065125E+01 -0.32702960393E+01  0.10908873434E+02  0.00000000000E+00 0.  1.
<mgrwt>
<rscale>  1 0.30000000E+03</rscale>
<asrwt>0</asrwt>
<pdfrwt beam="1">  1        1 0.10877457E+00 0.30000000E+03</pdfrwt>
<pdfrwt beam="2">0</pdfrwt>
<totfact> 0.30215337E+01</totfact>
</mgrwt>
</event>
<event>
 6    1  0.1940992E-004  0.3000000E+03  0.7818608E-02  0.1093470E+00
          1   -1    0    0  502    0  0.00000000000E+00  0.00000000000E+00  0.28236080101E+02  0.28236080101E+02  0.00000000000E+00 0.  1.
         13   -1    0    0    0    0 -0.00000000000E+00 -0.00000000000E+00 -0.10000000000E+04  0.10000000000E+04  0.00000000000E+00 0.  1.
    9000005    2    1    2  501    0  0.14574710001E+01 -0.84708041491E+01 -0.95335005906E+03  0.10079149331E+04  0.32702033347E+03 0.  0.
         13    1    3    3    0    0 -0.75498839767E+02 -0.60999696422E+02 -0.70014818952E+02  0.11967920723E+03  0.00000000000E+00 0.  1.
          3    1    3    3  501    0  0.76956310767E+02  0.52528892273E+02 -0.88333524011E+03  0.88823572587E+03  0.00000000000E+00 0.  1.
         21    1    1    2  502  501 -0.14574710001E+01  0.84708041491E+01 -0.18413860838E+02  0.20321147005E+02  0.00000000000E+00 0. -1.
<mgrwt>
<rscale>  1 0.30000000E+03</rscale>
<asrwt>0</asrwt>
<pdfrwt beam="1">  1        1 0.10267687E+00 0.30000000E+03</pdfrwt>
<pdfrwt beam="2">0</pdfrwt>
<totfact> 0.32924908E+01</totfact>
</mgrwt>
</event>
<event>
 6    1  0.1940992E-004  0.3000000E+03  0.7818608E-02  0.1093470E+00
          1   -1    0    0  502    0  0.00000000000E+00  0.00000000000E+00  0.42416711804E+02  0.42416711804E+02  0.00000000000E+00 0.  1.
         13   -1    0    0    0    0 -0.00000000000E+00 -0.00000000000E+00 -0.10000000000E+04  0.10000000000E+04  0.00000000000E+00 0.  1.
    9000005    2    1    2  501    0  0.47798877035E+02  0.28191278429E+01 -0.93314590068E+03  0.98865923757E+03  0.32309926639E+03 0.  0.
         13    1    3    3    0    0  0.12510624140E+03 -0.82858221628E+01 -0.12603394904E+03  0.17777734051E+03  0.00000000000E+00 0.  1.
          1    1    3    3  501    0 -0.77307364370E+02  0.11104950006E+02 -0.80711195164E+03  0.81088189706E+03  0.00000000000E+00 0.  1.
         21    1    1    2  502  501 -0.47798877035E+02 -0.28191278429E+01 -0.24437387513E+02  0.53757474234E+02  0.00000000000E+00 0.  1.
<mgrwt>
<rscale>  1 0.30000000E+03</rscale>
<asrwt>0</asrwt>
<pdfrwt beam="1">  1        1 0.15424291E+00 0.30000000E+03</pdfrwt>
<pdfrwt beam="2">0</pdfrwt>
<totfact> 0.17099070E+01</totfact>
</mgrwt>
</event>
<event>
 6    1  0.1940992E-004  0.3000000E+03  0.7818608E-02  0.1093470E+00
          1   -1    0    0  502    0  0.00000000000E+00  0.00000000000E+00  0.30930108037E+02  0.30930108037E+02  0.00000000000E+00 0.  1.
         13   -1    0    0    0    0 -0.00000000000E+00 -0.00000000000E+00 -0.10000000000E+04  0.10000000000E+04  0.00000000000E+00 0.  1.
    9000005    2    1    2  501    0  0.43384317282E+01 -0.13230273462E+02 -0.96232576937E+03  0.10154593189E+04  0.32387170284E+03 0.  0.
         13    1    3    3    0    0  0.46013574205E+02 -0.14490924390E+02 -0.97155821894E+03  0.97275516380E+03  0.00000000000E+00 0.  1.
          1    1    3    3  501    0 -0.41675142477E+02  0.12606509275E+01  0.92324495722E+01  0.42704155141E+02  0.00000000000E+00 0.  1.
         21    1    1    2  502  501 -0.43384317282E+01  0.13230273462E+02 -0.67441225911E+01  0.15470789096E+02  0.00000000000E+00 0.  1.
<mgrwt>
<rscale>  1 0.30000000E+03</rscale>
<asrwt>0</asrwt>
<pdfrwt beam="1">  1        1 0.11247336E+00 0.30000000E+03</pdfrwt>
<pdfrwt beam="2">0</pdfrwt>
<totfact> 0.28724889E+01</totfact>
</mgrwt>
</event>
<event>
 6    1  0.1940992E-004  0.3000000E+03  0.7818608E-02  0.1093470E+00
          1   -1    0    0  502    0  0.00000000000E+00  0.00000000000E+00  0.39025488252E+02  0.39025488252E+02  0.00000000000E+00 0.  1.
         13   -1    0    0    0    0 -0.00000000000E+00 -0.00000000000E+00 -0.10000000000E+04  0.10000000000E+04  0.00000000000E+00 0.  1.
    9000005    2    1    2  501    0  0.11433234554E+02 -0.84600417482E+01 -0.97168219843E+03  0.10212225190E+04  0.31388986524E+03 0.  0.
         13    1    3    3    0    0 -0.87662594680E+02 -0.89127235436E+02 -0.17915269487E+03  0.21845842323E+03  0.00000000000E+00 0.  1.
          1    1    3    3  501    0  0.99095829234E+02  0.80667193688E+02 -0.79252950356E+03  0.80276409581E+03  0.00000000000E+00 0.  1.
         21    1    1    2  502  501 -0.11433234554E+02  0.84600417482E+01  0.10707686679E+02  0.17802969212E+02  0.00000000000E+00 0. -1.
<mgrwt>
<rscale>  1 0.30000000E+03</rscale>
<asrwt>0</asrwt>
<pdfrwt beam="1">  1        1 0.14191117E+00 0.30000000E+03</pdfrwt>
<pdfrwt beam="2">0</pdfrwt>
<totfact> 0.19772137E+01</totfact>
</mgrwt>
</event>
<event>
 6    1  0.1940992E-004  0.3000000E+03  0.7818608E-02  0.1093470E+00
          1   -1    0    0  502    0  0.00000000000E+00  0.00000000000E+00  0.37217268601E+02  0.37217268601E+02  0.00000000000E+00 0.  1.
         13   -1    0    0    0    0 -0.00000000000E+00 -0.00000000000E+00 -0.10000000000E+04  0.10000000000E+04  0.00000000000E+00 0.  1.
    9000005    2    1    2  501    0 -0.34141444487E+01 -0.34422464319E+02 -0.86337072907E+03  0.93195897373E+03  0.34920187638E+03 0.  0.
         13    1    3    3    0    0  0.91816172318E+02 -0.16423013051E+03 -0.41840292831E+03  0.45876219950E+03  0.00000000000E+00 0.  1.
          3    1    3    3  501    0 -0.95230316767E+02  0.12980766619E+03 -0.44496780076E+03  0.47319677424E+03  0.00000000000E+00 0.  1.
         21    1    1    2  502  501  0.34141444487E+01  0.34422464319E+02 -0.99412002325E+02  0.10525829487E+03  0.00000000000E+00 0.  1.
<mgrwt>
<rscale>  1 0.30000000E+03</rscale>
<asrwt>0</asrwt>
<pdfrwt beam="1">  1        1 0.13533581E+00 0.30000000E+03</pdfrwt>
<pdfrwt beam="2">0</pdfrwt>
<totfact> 0.21413983E+01</totfact>
</mgrwt>
</event>
<event>
 6    1  0.1940992E-004  0.3000000E+03  0.7818608E-02  0.1093470E+00
          3   -1    0    0  502    0  0.00000000000E+00  0.00000000000E+00  0.32517363126E+02  0.32517363126E+02  0.00000000000E+00 0.  1.
         13   -1    0    0    0    0 -0.00000000000E+00 -0.00000000000E+00 -0.10000000000E+04  0.10000000000E+04  0.00000000000E+00 0.  1.
    9000005    2    1    2  501    0  0.11252288100E+02  0.18252293527E+01 -0.95063476611E+03  0.10121753819E+04  0.34736522537E+03 0.  0.
         13    1    3    3    0    0 -0.74167870240E+02 -0.11083099657E+03 -0.77652846240E+03  0.78789646254E+03  0.00000000000E+00 0.  1.
          1    1    3    3  501    0  0.85420158339E+02  0.11265622592E+03 -0.17410630372E+03  0.22427891939E+03  0.00000000000E+00 0.  1.
         21    1    1    2  502  501 -0.11252288100E+02 -0.18252293527E+01 -0.16847870760E+02  0.20341981192E+02  0.00000000000E+00 0. -1.
<mgrwt>
<rscale>  1 0.30000000E+03</rscale>
<asrwt>0</asrwt>
<pdfrwt beam="1">  1        3 0.11824521E+00 0.30000000E+03</pdfrwt>
<pdfrwt beam="2">0</pdfrwt>
<totfact> 0.24237762E+00</totfact>
</mgrwt>
</event>
<event>
 6    1  0.1940992E-004  0.3000000E+03  0.7818608E-02  0.1093470E+00
          1   -1    0    0  502    0  0.00000000000E+00  0.00000000000E+00  0.41878285814E+02  0.41878285814E+02  0.00000000000E+00 0.  1.
         13   -1    0    0    0    0 -0.00000000000E+00 -0.00000000000E+00 -0.10000000000E+04  0.10000000000E+04  0.00000000000E+00 0.  1.
    9000005    2    1    2  501    0 -0.19751049922E+02 -0.65841417654E+01 -0.96397998398E+03  0.10202501971E+04  0.33349602742E+03 0.  0.
         13    1    3    3    0    0 -0.14404146258E+01 -0.70003853208E+02 -0.95025140321E+03  0.95282755185E+03  0.00000000000E+00 0.  1.
          3    1    3    3  501    0 -0.18310635296E+02  0.63419711442E+02 -0.13728580764E+02  0.67422645262E+02  0.00000000000E+00 0.  1.
         21    1    1    2  502  501  0.19751049922E+02  0.65841417654E+01  0.58582697924E+01  0.21628088699E+02  0.00000000000E+00 0. -1.
<mgrwt>
<rscale>  1 0.30000000E+03</rscale>
<asrwt>0</asrwt>
<pdfrwt beam="1">  1        1 0.15228500E+00 0.30000000E+03</pdfrwt>
<pdfrwt beam="2">0</pdfrwt>
<totfact> 0.17492151E+01</totfact>
</mgrwt>
</event>
<event>
 6    1  0.1940992E-004  0.3000000E+03  0.7818608E-02  0.1093470E+00
          1   -1    0    0  502    0  0.00000000000E+00  0.00000000000E+00  0.95526738009E+02  0.95526738009E+02  0.00000000000E+00 0.  1.
         13   -1    0    0    0    0 -0.00000000000E+00 -0.00000000000E+00 -0.10000000000E+04  0.10000000000E+04  0.00000000000E+00 0.  1.
    9000005    2    1    2  501    0 -0.12498910238E+03 -0.59852059779E+02 -0.88231010985E+03  0.95518519004E+03  0.33867842056E+03 0.  0.
         13    1    3    3    0    0 -0.20048273036E+03  0.54585815735E+02 -0.36480144940E+03  0.41982500394E+03  0.00000000000E+00 0.  1.
          1    1    3    3  501    0  0.75493627979E+02 -0.11443787551E+03 -0.51750866046E+03  0.53536018610E+03  0.00000000000E+00 0.  1.
         21    1    1    2  502  501  0.12498910238E+03  0.59852059779E+02 -0.22163152138E+02  0.14034154797E+03  0.00000000000E+00 0.  1.
<mgrwt>
<rscale>  1 0.30000000E+03</rscale>
<asrwt>0</asrwt>
<pdfrwt beam="1">  1        1 0.34737069E+00 0.30000000E+03</pdfrwt>
<pdfrwt beam="2">0</pdfrwt>
<totfact> 0.20309444E+00</totfact>
</mgrwt>
</event>
<event>
 6    1  0.1940992E-004  0.3000000E+03  0.7818608E-02  0.1093470E+00
          1   -1    0    0  502    0  0.00000000000E+00  0.00000000000E+00  0.28788984047E+02  0.28788984047E+02  0.00000000000E+00 0.  1.
         13   -1    0    0    0    0 -0.00000000000E+00 -0.00000000000E+00 -0.10000000000E+04  0.10000000000E+04  0.00000000000E+00 0.  1.
    9000005    2    1    2  501    0 -0.14065765972E+02  0.12670620178E+00 -0.89836792310E+03  0.95460018433E+03  0.32248833288E+03 0.  0.
         13    1    3    3    0    0 -0.55476699105E+01  0.14646454035E+02  0.25852430638E+02  0.30226535150E+02  0.00000000000E+00 0.  1.
          3    1    3    3  501    0 -0.85180960617E+01 -0.14519747834E+02 -0.92422035374E+03  0.92437364918E+03  0.00000000000E+00 0.  1.
         21    1    1    2  502  501  0.14065765972E+02 -0.12670620178E+00 -0.72843092854E+02  0.74188799716E+02  0.00000000000E+00 0. -1.
<mgrwt>
<rscale>  1 0.30000000E+03</rscale>
<asrwt>0</asrwt>
<pdfrwt beam="1">  1        1 0.10468744E+00 0.30000000E+03</pdfrwt>
<pdfrwt beam="2">0</pdfrwt>
<totfact> 0.31994006E+01</totfact>
</mgrwt>
</event>
<event>
 6    1  0.1940992E-004  0.3000000E+03  0.7818608E-02  0.1093470E+00
          1   -1    0    0  502    0  0.00000000000E+00  0.00000000000E+00  0.62493511213E+02  0.62493511213E+02  0.00000000000E+00 0.  1.
         13   -1    0    0    0    0 -0.00000000000E+00 -0.00000000000E+00 -0.10000000000E+04  0.10000000000E+04  0.00000000000E+00 0.  1.
    9000005    2    1    2  501    0 -0.13189618943E+03  0.39958938878E+02 -0.77400862721E+03  0.84865976195E+03  0.31959461037E+03 0.  0.
         13    1    3    3    0    0 -0.18087500101E+03  0.13079360220E+02 -0.19247818423E+03  0.26445167244E+03  0.00000000000E+00 0.  1.
          1    1    3    3  501    0  0.48978811574E+02  0.26879578658E+02 -0.58153044298E+03  0.58420808951E+03  0.00000000000E+00 0.  1.
         21    1    1    2  502  501  0.13189618943E+03 -0.39958938878E+02 -0.16349786158E+03  0.21383374927E+03  0.00000000000E+00 0.  1.
<mgrwt>
<rscale>  1 0.30000000E+03</rscale>
<asrwt>0</asrwt>
<pdfrwt beam="1">  1        1 0.22724961E+00 0.30000000E+03</pdfrwt>
<pdfrwt beam="2">0</pdfrwt>
<totfact> 0.76231575E+00</totfact>
</mgrwt>
</event>
<event>
 6    1  0.1940992E-004  0.3000000E+03  0.7818608E-02  0.1093470E+00
          3   -1    0    0  502    0  0.00000000000E+00  0.00000000000E+00  0.22663271479E+02  0.22663271479E+02  0.00000000000E+00 0.  1.
         13   -1    0    0    0    0 -0.00000000000E+00 -0.00000000000E+00 -0.10000000000E+04  0.10000000000E+04  0.00000000000E+00 0.  1.
    9000005    2    1    2  501    0 -0.27758458746E+02  0.25281884021E+02 -0.94409046267E+03  0.97251329756E+03  0.23035973286E+03 0.  0.
         13    1    3    3    0    0 -0.81381712426E+02 -0.63089789913E+02 -0.24408013738E+03  0.26491209518E+03  0.00000000000E+00 0.  1.
          3    1    3    3  501    0  0.53623253679E+02  0.88371673934E+02 -0.70001032529E+03  0.70760120238E+03  0.00000000000E+00 0.  1.
         21    1    1    2  502  501  0.27758458746E+02 -0.25281884021E+02 -0.33246265847E+02  0.50149973922E+02  0.00000000000E+00 0.  1.
<mgrwt>
<rscale>  1 0.30000000E+03</rscale>
<asrwt>0</asrwt>
<pdfrwt beam="1">  1        3 0.82412070E-01 0.30000000E+03</pdfrwt>
<pdfrwt beam="2">0</pdfrwt>
<totfact> 0.62659933E+00</totfact>
</mgrwt>
</event>
<event>
 6    1  0.1940992E-004  0.3000000E+03  0.7818608E-02  0.1093470E+00
          1   -1    0    0  502    0  0.00000000000E+00  0.00000000000E+00  0.34600728536E+02  0.34600728536E+02  0.00000000000E+00 0.  1.
         13   -1    0    0    0    0 -0.00000000000E+00 -0.00000000000E+00 -0.10000000000E+04  0.10000000000E+04  0.00000000000E+00 0.  1.
    9000005    2    1    2  501    0 -0.21638721713E+02 -0.39681226376E+01 -0.94609708327E+03  0.10053337720E+04  0.33928206837E+03 0.  0.
         13    1    3    3    0    0  0.45609872454E+02  0.53252566116E+02 -0.17126494897E+02  0.72176264039E+02  0.00000000000E+00 0.  1.
          3    1    3    3  501    0 -0.67248594167E+02 -0.57220688753E+02 -0.92897058837E+03  0.93315750798E+03  0.00000000000E+00 0.  1.
         21    1    1    2  502  501  0.21638721713E+02  0.39681226376E+01 -0.19302188197E+02  0.29266956518E+02  0.00000000000E+00 0.  1.
<mgrwt>
<rscale>  1 0.30000000E+03</rscale>
<asrwt>0</asrwt>
<pdfrwt beam="1">  1        1 0.12582110E+00 0.30000000E+03</pdfrwt>
<pdfrwt beam="2">0</pdfrwt>
<totfact> 0.24120179E+01</totfact>
</mgrwt>
</event>
<event>
 6    1  0.1940992E-004  0.3000000E+03  0.7818608E-02  0.1093470E+00
          3   -1    0    0  502    0  0.00000000000E+00  0.00000000000E+00  0.27270501377E+02  0.27270501377E+02  0.00000000000E+00 0.  1.
         13   -1    0    0    0    0 -0.00000000000E+00 -0.00000000000E+00 -0.10000000000E+04  0.10000000000E+04  0.00000000000E+00 0.  1.
    9000005    2    1    2  501    0  0.79526744687E+01  0.28402773957E+01 -0.95355524491E+03  0.10063190286E+04  0.32146394818E+03 0.  0.
         13    1    3    3    0    0  0.15089464658E+03 -0.30329080073E+02 -0.66520264163E+03  0.68277639231E+03  0.00000000000E+00 0.  1.
          1    1    3    3  501    0 -0.14294197211E+03  0.33169357469E+02 -0.28835260328E+03  0.32354263627E+03  0.00000000000E+00 0.  1.
         21    1    1    2  502  501 -0.79526744687E+01 -0.28402773957E+01 -0.19174253710E+02  0.20951472793E+02  0.00000000000E+00 0. -1.
<mgrwt>
<rscale>  1 0.30000000E+03</rscale>
<asrwt>0</asrwt>
<pdfrwt beam="1">  1        3 0.99165669E-01 0.30000000E+03</pdfrwt>
<pdfrwt beam="2">0</pdfrwt>
<totfact> 0.40037742E+00</totfact>
</mgrwt>
</event>
<event>
 6    1  0.1940992E-004  0.3000000E+03  0.7818608E-02  0.1093470E+00
          1   -1    0    0  502    0  0.00000000000E+00  0.00000000000E+00  0.40066030292E+02  0.40066030292E+02  0.00000000000E+00 0.  1.
         13   -1    0    0    0    0 -0.00000000000E+00 -0.00000000000E+00 -0.10000000000E+04  0.10000000000E+04  0.00000000000E+00 0.  1.
    9000005    2    1    2  501    0 -0.12671782060E+02  0.27764658176E+01 -0.95899240234E+03  0.10270595176E+04  0.36744597173E+03 0.  0.
         13    1    3    3    0    0  0.50578666245E+02 -0.14316870221E+03 -0.19744605301E+03  0.24907914931E+03  0.00000000000E+00 0.  1.
          1    1    3    3  501    0 -0.63250448304E+02  0.14594516802E+03 -0.76154634934E+03  0.77798036831E+03  0.00000000000E+00 0.  1.
         21    1    1    2  502  501  0.12671782060E+02 -0.27764658176E+01 -0.94156736354E+00  0.13006512680E+02  0.00000000000E+00 0. -1.
<mgrwt>
<rscale>  1 0.30000000E+03</rscale>
<asrwt>0</asrwt>
<pdfrwt beam="1">  1        1 0.14569496E+00 0.30000000E+03</pdfrwt>
<pdfrwt beam="2">0</pdfrwt>
<totfact> 0.18899642E+01</totfact>
</mgrwt>
</event>
<event>
 6    1  0.1940992E-004  0.3000000E+03  0.7818608E-02  0.1093470E+00
          1   -1    0    0  502    0  0.00000000000E+00  0.00000000000E+00  0.80451624371E+02  0.80451624371E+02  0.00000000000E+00 0.  1.
         13   -1    0    0    0    0 -0.00000000000E+00 -0.00000000000E+00 -0.10000000000E+04  0.10000000000E+04  0.00000000000E+00 0.  1.
    9000005    2    1    2  501    0  0.67444630038E+01  0.89670095161E+01 -0.97271694806E+03  0.10261120243E+04  0.32649920421E+03 0.  0.
         13    1    3    3    0    0 -0.26680231327E+02  0.71405701047E+02 -0.94806107564E+03  0.95112060856E+03  0.00000000000E+00 0.  1.
          1    1    3    3  501    0  0.33424694331E+02 -0.62438691531E+02 -0.24655872418E+02  0.74991415748E+02  0.00000000000E+00 0.  1.
         21    1    1    2  502  501 -0.67444630038E+01 -0.89670095161E+01  0.53168572429E+02  0.54339600063E+02  0.00000000000E+00 0.  1.
<mgrwt>
<rscale>  1 0.30000000E+03</rscale>
<asrwt>0</asrwt>
<pdfrwt beam="1">  1        1 0.29255198E+00 0.30000000E+03</pdfrwt>
<pdfrwt beam="2">0</pdfrwt>
<totfact> 0.37683588E+00</totfact>
</mgrwt>
</event>
<event>
 6    1  0.1940992E-004  0.3000000E+03  0.7818608E-02  0.1093470E+00
          1   -1    0    0  502    0  0.00000000000E+00  0.00000000000E+00  0.45782368739E+02  0.45782368739E+02  0.00000000000E+00 0.  1.
         13   -1    0    0    0    0 -0.00000000000E+00 -0.00000000000E+00 -0.10000000000E+04  0.10000000000E+04  0.00000000000E+00 0.  1.
    9000005    2    1    2  501    0 -0.75143740214E+02 -0.60671561301E+02 -0.77070791662E+03  0.83840967186E+03  0.31561442470E+03 0.  0.
         13    1    3    3    0    0 -0.47430137646E+02  0.12947049511E+03 -0.31693301586E+03  0.34562807120E+03  0.00000000000E+00 0.  1.
          3    1    3    3  501    0 -0.27713602568E+02 -0.19014205641E+03 -0.45377490076E+03  0.49278160065E+03  0.00000000000E+00 0.  1.
         21    1    1    2  502  501  0.75143740214E+02  0.60671561301E+02 -0.18350971464E+03  0.20737269688E+03  0.00000000000E+00 0.  1.
<mgrwt>
<rscale>  1 0.30000000E+03</rscale>
<asrwt>0</asrwt>
<pdfrwt beam="1">  1        1 0.16648169E+00 0.30000000E+03</pdfrwt>
<pdfrwt beam="2">0</pdfrwt>
<totfact> 0.14865738E+01</totfact>
</mgrwt>
</event>
<event>
 6    1  0.1940992E-004  0.3000000E+03  0.7818608E-02  0.1093470E+00
          1   -1    0    0  502    0  0.00000000000E+00  0.00000000000E+00  0.36985093926E+02  0.36985093926E+02  0.00000000000E+00 0.  1.
         13   -1    0    0    0    0 -0.00000000000E+00 -0.00000000000E+00 -0.10000000000E+04  0.10000000000E+04  0.00000000000E+00 0.  1.
    9000005    2    1    2  501    0 -0.21032778549E+02 -0.72980292069E+01 -0.96163472552E+03  0.10146794018E+04  0.32301285433E+03 0.  0.
         13    1    3    3    0    0 -0.42291400101E+02 -0.15486551299E+03 -0.34880937793E+03  0.38397899912E+03  0.00000000000E+00 0.  1.
          3    1    3    3  501    0  0.21258621552E+02  0.14756748378E+03 -0.61282534759E+03  0.63070040266E+03  0.00000000000E+00 0.  1.
         21    1    1    2  502  501  0.21032778549E+02  0.72980292069E+01 -0.13801805516E+01  0.22305692147E+02  0.00000000000E+00 0. -1.
<mgrwt>
<rscale>  1 0.30000000E+03</rscale>
<asrwt>0</asrwt>
<pdfrwt beam="1">  1        1 0.13449153E+00 0.30000000E+03</pdfrwt>
<pdfrwt beam="2">0</pdfrwt>
<totfact> 0.21637483E+01</totfact>
</mgrwt>
</event>
<event>
 6    1  0.1940992E-004  0.3000000E+03  0.7818608E-02  0.1093470E+00
          3   -1    0    0  502    0  0.00000000000E+00  0.00000000000E+00  0.29373822838E+02  0.29373822838E+02  0.00000000000E+00 0.  1.
         13   -1    0    0    0    0 -0.00000000000E+00 -0.00000000000E+00 -0.10000000000E+04  0.10000000000E+04  0.00000000000E+00 0.  1.
    9000005    2    1    2  501    0 -0.12432104814E+02 -0.19037774633E+01 -0.97090898644E+03  0.10167936170E+04  0.30173965260E+03 0.  0.
         13    1    3    3    0    0  0.98815159032E+02 -0.53632266948E+02 -0.15373215326E+03  0.19045847489E+03  0.00000000000E+00 0.  1.
          3    1    3    3  501    0 -0.11124726385E+03  0.51728489485E+02 -0.81717683318E+03  0.82633514207E+03  0.00000000000E+00 0.  1.
         21    1    1    2  502  501  0.12432104814E+02  0.19037774633E+01  0.28280927649E+00  0.12580205873E+02  0.00000000000E+00 0.  1.
<mgrwt>
<rscale>  1 0.30000000E+03</rscale>
<asrwt>0</asrwt>
<pdfrwt beam="1">  1        3 0.10681413E+00 0.30000000E+03</pdfrwt>
<pdfrwt beam="2">0</pdfrwt>
<totfact> 0.32762510E+00</totfact>
</mgrwt>
</event>
<event>
 6    1  0.1940992E-004  0.3000000E+03  0.7818608E-02  0.1093470E+00
          1   -1    0    0  502    0  0.00000000000E+00  0.00000000000E+00  0.32330682288E+02  0.32330682288E+02  0.00000000000E+00 0.  1.
         13   -1    0    0    0    0 -0.00000000000E+00 -0.00000000000E+00 -0.10000000000E+04  0.10000000000E+04  0.00000000000E+00 0.  1.
    9000005    2    1    2  501    0 -0.11939055547E+02 -0.30385460291E+02 -0.85364897827E+03  0.91372859524E+03  0.32421836842E+03 0.  0.
         13    1    3    3    0    0 -0.23443790061E+02  0.11113826017E+03 -0.11529771950E+03  0.16184834966E+03  0.00000000000E+00 0.  1.
          3    1    3    3  501    0  0.11504734515E+02 -0.14152372046E+03 -0.73835125877E+03  0.75188024558E+03  0.00000000000E+00 0.  1.
         21    1    1    2  502  501  0.11939055547E+02  0.30385460291E+02 -0.11402033944E+03  0.11860208704E+03  0.00000000000E+00 0.  1.
<mgrwt>
<rscale>  1 0.30000000E+03</rscale>
<asrwt>0</asrwt>
<pdfrwt beam="1">  1        1 0.11756637E+00 0.30000000E+03</pdfrwt>
<pdfrwt beam="2">0</pdfrwt>
<totfact> 0.26837622E+01</totfact>
</mgrwt>
</event>
<event>
 6    1  0.1940992E-004  0.3000000E+03  0.7818608E-02  0.1093470E+00
          1   -1    0    0  502    0  0.00000000000E+00  0.00000000000E+00  0.64945953608E+02  0.64945953608E+02  0.00000000000E+00 0.  1.
         13   -1    0    0    0    0 -0.00000000000E+00 -0.00000000000E+00 -0.10000000000E+04  0.10000000000E+04  0.00000000000E+00 0.  1.
    9000005    2    1    2  501    0 -0.23212625235E+02  0.35835720393E+00 -0.97114309751E+03  0.10220347196E+04  0.31764303538E+03 0.  0.
         13    1    3    3    0    0  0.13625045987E+03  0.59042775716E+02 -0.44159990487E+03  0.46589774968E+03  0.00000000000E+00 0.  1.
          3    1    3    3  501    0 -0.15946308510E+03 -0.58684418512E+02 -0.52954319264E+03  0.55613696996E+03  0.00000000000E+00 0.  1.
         21    1    1    2  502  501  0.23212625235E+02 -0.35835720393E+00  0.36089051115E+02  0.42911233967E+02  0.00000000000E+00 0.  1.
<mgrwt>
<rscale>  1 0.30000000E+03</rscale>
<asrwt>0</asrwt>
<pdfrwt beam="1">  1        1 0.23616760E+00 0.30000000E+03</pdfrwt>
<pdfrwt beam="2">0</pdfrwt>
<totfact> 0.69244653E+00</totfact>
</mgrwt>
</event>
<event>
 6    1  0.1940992E-004  0.3000000E+03  0.7818608E-02  0.1093470E+00
          1   -1    0    0  502    0  0.00000000000E+00  0.00000000000E+00  0.36311743661E+02  0.36311743661E+02  0.00000000000E+00 0.  1.
         13   -1    0    0    0    0 -0.00000000000E+00 -0.00000000000E+00 -0.10000000000E+04  0.10000000000E+04  0.00000000000E+00 0.  1.
    9000005    2    1    2  501    0  0.25422081753E+02 -0.58766741413E+02 -0.90753031827E+03  0.95114410812E+03  0.27742390610E+03 0.  0.
         13    1    3    3    0    0 -0.86665794726E+02 -0.10282762557E+03 -0.68536610645E+03  0.69843480757E+03  0.00000000000E+00 0.  1.
          1    1    3    3  501    0  0.11208787648E+03  0.44060884154E+02 -0.22216421182E+03  0.25270930054E+03  0.00000000000E+00 0.  1.
         21    1    1    2  502  501 -0.25422081753E+02  0.58766741413E+02 -0.56157938064E+02  0.85167635546E+02  0.00000000000E+00 0.  1.
<mgrwt>
<rscale>  1 0.30000000E+03</rscale>
<asrwt>0</asrwt>
<pdfrwt beam="1">  1        1 0.13204298E+00 0.30000000E+03</pdfrwt>
<pdfrwt beam="2">0</pdfrwt>
<totfact> 0.22303407E+01</totfact>
</mgrwt>
</event>
<event>
 6    1  0.1940992E-004  0.3000000E+03  0.7818608E-02  0.1093470E+00
          1   -1    0    0  502    0  0.00000000000E+00  0.00000000000E+00  0.23207706542E+02  0.23207706542E+02  0.00000000000E+00 0.  1.
         13   -1    0    0    0    0 -0.00000000000E+00 -0.00000000000E+00 -0.10000000000E+04  0.10000000000E+04  0.00000000000E+00 0.  1.
    9000005    2    1    2  501    0 -0.15667592566E+02  0.75533529182E+00 -0.97672566274E+03  0.10075217757E+04  0.24670035299E+03 0.  0.
         13    1    3    3    0    0 -0.47301798319E+02  0.78051320233E+02 -0.85524469158E+03  0.86010054714E+03  0.00000000000E+00 0.  1.
          3    1    3    3  501    0  0.31634205754E+02 -0.77295984941E+02 -0.12148097117E+03  0.14742122852E+03  0.00000000000E+00 0.  1.
         21    1    1    2  502  501  0.15667592566E+02 -0.75533529182E+00 -0.66630713509E-01  0.15685930889E+02  0.00000000000E+00 0. -1.
<mgrwt>
<rscale>  1 0.30000000E+03</rscale>
<asrwt>0</asrwt>
<pdfrwt beam="1">  1        1 0.84391838E-01 0.30000000E+03</pdfrwt>
<pdfrwt beam="2">0</pdfrwt>
<totfact> 0.43604632E+01</totfact>
</mgrwt>
</event>
<event>
 6    1  0.1940992E-004  0.3000000E+03  0.7818608E-02  0.1093470E+00
          1   -1    0    0  502    0  0.00000000000E+00  0.00000000000E+00  0.23346158274E+02  0.23346158274E+02  0.00000000000E+00 0.  1.
         13   -1    0    0    0    0 -0.00000000000E+00 -0.00000000000E+00 -0.10000000000E+04  0.10000000000E+04  0.00000000000E+00 0.  1.
    9000005    2    1    2  501    0  0.13208846699E+02  0.62641409751E+01 -0.95554679350E+03  0.99767086708E+03  0.28646774923E+03 0.  0.
         13    1    3    3    0    0 -0.11884963398E+03 -0.65318679100E+02 -0.41172420666E+03  0.43348424157E+03  0.00000000000E+00 0.  1.
          1    1    3    3  501    0  0.13205848068E+03  0.71582820075E+02 -0.54382258684E+03  0.56418662551E+03  0.00000000000E+00 0.  1.
         21    1    1    2  502  501 -0.13208846699E+02 -0.62641409751E+01 -0.21107048227E+02  0.25675291199E+02  0.00000000000E+00 0.  1.
<mgrwt>
<rscale>  1 0.30000000E+03</rscale>
<asrwt>0</asrwt>
<pdfrwt beam="1">  1        1 0.84895300E-01 0.30000000E+03</pdfrwt>
<pdfrwt beam="2">0</pdfrwt>
<totfact> 0.43243677E+01</totfact>
</mgrwt>
</event>
<event>
 6    1  0.1940992E-004  0.3000000E+03  0.7818608E-02  0.1093470E+00
          1   -1    0    0  502    0  0.00000000000E+00  0.00000000000E+00  0.40724246282E+02  0.40724246282E+02  0.00000000000E+00 0.  1.
         13   -1    0    0    0    0 -0.00000000000E+00 -0.00000000000E+00 -0.10000000000E+04  0.10000000000E+04  0.00000000000E+00 0.  1.
    9000005    2    1    2  501    0  0.11571920688E+02  0.11235834711E+02 -0.97022725274E+03  0.10212283836E+04  0.31828656306E+03 0.  0.
         13    1    3    3    0    0 -0.58794982243E+02  0.22850748950E+02 -0.94265799493E+03  0.94476616264E+03  0.00000000000E+00 0.  1.
          3    1    3    3  501    0  0.70366902932E+02 -0.11614914239E+02 -0.27569257806E+02  0.76462220979E+02  0.00000000000E+00 0.  1.
         21    1    1    2  502  501 -0.11571920688E+02 -0.11235834711E+02  0.10951499021E+02  0.19495862660E+02  0.00000000000E+00 0.  1.
<mgrwt>
<rscale>  1 0.30000000E+03</rscale>
<asrwt>0</asrwt>
<pdfrwt beam="1">  1        1 0.14808848E+00 0.30000000E+03</pdfrwt>
<pdfrwt beam="2">0</pdfrwt>
<totfact> 0.18372671E+01</totfact>
</mgrwt>
</event>
<event>
 6    1  0.1940992E-004  0.3000000E+03  0.7818608E-02  0.1093470E+00
          1   -1    0    0  502    0  0.00000000000E+00  0.00000000000E+00  0.29063142246E+02  0.29063142246E+02  0.00000000000E+00 0.  1.
         13   -1    0    0    0    0 -0.00000000000E+00 -0.00000000000E+00 -0.10000000000E+04  0.10000000000E+04  0.00000000000E+00 0.  1.
    9000005    2    1    2  501    0 -0.74608961315E+01 -0.75744090583E+01 -0.95112153847E+03  0.10065757342E+04  0.32931670324E+03 0.  0.
         13    1    3    3    0    0 -0.14058945802E+03 -0.95352056387E+02 -0.47532536029E+03  0.50476886641E+03  0.00000000000E+00 0.  1.
          1    1    3    3  501    0  0.13312856188E+03  0.87777647329E+02 -0.47579617818E+03  0.50180686776E+03  0.00000000000E+00 0.  1.
         21    1    1    2  502  501  0.74608961315E+01  0.75744090583E+01 -0.19815319284E+02  0.22487408076E+02  0.00000000000E+00 0. -1.
<mgrwt>
<rscale>  1 0.30000000E+03</rscale>
<asrwt>0</asrwt>
<pdfrwt beam="1">  1        1 0.10568438E+00 0.30000000E+03</pdfrwt>
<pdfrwt beam="2">0</pdfrwt>
<totfact> 0.31546523E+01</totfact>
</mgrwt>
</event>
<event>
 6    1  0.1940992E-004  0.3000000E+03  0.7818608E-02  0.1093470E+00
          1   -1    0    0  502    0  0.00000000000E+00  0.00000000000E+00  0.45986866428E+02  0.45986866428E+02  0.00000000000E+00 0.  1.
         13   -1    0    0    0    0 -0.00000000000E+00 -0.00000000000E+00 -0.10000000000E+04  0.10000000000E+04  0.00000000000E+00 0.  1.
    9000005    2    1    2  501    0 -0.11533165835E+01  0.12281652929E+02 -0.96800044594E+03  0.10273370931E+04  0.34386693704E+03 0.  0.
         13    1    3    3    0    0 -0.88040378184E+02 -0.32910303944E+02 -0.90721277007E+03  0.91206864132E+03  0.00000000000E+00 0.  1.
          1    1    3    3  501    0  0.86887061600E+02  0.45191956872E+02 -0.60787675866E+02  0.11526845178E+03  0.00000000000E+00 0.  1.
         21    1    1    2  502  501  0.11533165835E+01 -0.12281652929E+02  0.13987312367E+02  0.18649773324E+02  0.00000000000E+00 0. -1.
<mgrwt>
<rscale>  1 0.30000000E+03</rscale>
<asrwt>0</asrwt>
<pdfrwt beam="1">  1        1 0.16722532E+00 0.30000000E+03</pdfrwt>
<pdfrwt beam="2">0</pdfrwt>
<totfact> 0.14741279E+01</totfact>
</mgrwt>
</event>
<event>
 6    1  0.1940992E-004  0.3000000E+03  0.7818608E-02  0.1093470E+00
          1   -1    0    0  502    0  0.00000000000E+00  0.00000000000E+00  0.32133397136E+02  0.32133397136E+02  0.00000000000E+00 0.  1.
         13   -1    0    0    0    0 -0.00000000000E+00 -0.00000000000E+00 -0.10000000000E+04  0.10000000000E+04  0.00000000000E+00 0.  1.
    9000005    2    1    2  501    0  0.23550163609E+02  0.72964659647E+01 -0.93077418824E+03  0.98759469662E+03  0.32923372650E+03 0.  0.
         13    1    3    3    0    0 -0.85445606993E+02  0.57760340209E+02 -0.85895188039E+02  0.13422068389E+03  0.00000000000E+00 0.  1.
          1    1    3    3  501    0  0.10899577060E+03 -0.50463874244E+02 -0.84487900020E+03  0.85337401273E+03  0.00000000000E+00 0.  1.
         21    1    1    2  502  501 -0.23550163609E+02 -0.72964659647E+01 -0.37092414622E+02  0.44538700521E+02  0.00000000000E+00 0.  1.
<mgrwt>
<rscale>  1 0.30000000E+03</rscale>
<asrwt>0</asrwt>
<pdfrwt beam="1">  1        1 0.11684896E+00 0.30000000E+03</pdfrwt>
<pdfrwt beam="2">0</pdfrwt>
<totfact> 0.27092794E+01</totfact>
</mgrwt>
</event>
<event>
 6    1  0.1940992E-004  0.3000000E+03  0.7818608E-02  0.1093470E+00
          1   -1    0    0  502    0  0.00000000000E+00  0.00000000000E+00  0.45345935081E+02  0.45345935081E+02  0.00000000000E+00 0.  1.
         13   -1    0    0    0    0 -0.00000000000E+00 -0.00000000000E+00 -0.10000000000E+04  0.10000000000E+04  0.00000000000E+00 0.  1.
    9000005    2    1    2  501    0  0.14664649267E+02 -0.17276056337E+02 -0.96919261595E+03  0.10184222740E+04  0.31198731912E+03 0.  0.
         13    1    3    3    0    0  0.61211894458E+02  0.11864769699E+03 -0.23474953326E+03  0.27005835553E+03  0.00000000000E+00 0.  1.
          1    1    3    3  501    0 -0.46547245191E+02 -0.13592375332E+03 -0.73444308268E+03  0.74836391846E+03  0.00000000000E+00 0.  1.
         21    1    1    2  502  501 -0.14664649267E+02  0.17276056337E+02  0.14538551027E+02  0.26923661093E+02  0.00000000000E+00 0.  1.
<mgrwt>
<rscale>  1 0.30000000E+03</rscale>
<asrwt>0</asrwt>
<pdfrwt beam="1">  1        1 0.16489466E+00 0.30000000E+03</pdfrwt>
<pdfrwt beam="2">0</pdfrwt>
<totfact> 0.15135379E+01</totfact>
</mgrwt>
</event>
<event>
 6    1  0.1940992E-004  0.3000000E+03  0.7818608E-02  0.1093470E+00
          1   -1    0    0  502    0  0.00000000000E+00  0.00000000000E+00  0.31667495057E+02  0.31667495057E+02  0.00000000000E+00 0.  1.
         13   -1    0    0    0    0 -0.00000000000E+00 -0.00000000000E+00 -0.10000000000E+04  0.10000000000E+04  0.00000000000E+00 0.  1.
    9000005    2    1    2  501    0 -0.11371210096E+02 -0.51993235998E+01 -0.96241928625E+03  0.10178362428E+04  0.33103383079E+03 0.  0.
         13    1    3    3    0    0 -0.53491395167E+02 -0.69843231080E+02 -0.48094962391E+02  0.10026231442E+03  0.00000000000E+00 0.  1.
          1    1    3    3  501    0  0.42120185071E+02  0.64643907480E+02 -0.91432432386E+03  0.91757392834E+03  0.00000000000E+00 0.  1.
         21    1    1    2  502  501  0.11371210096E+02  0.51993235998E+01 -0.59132186906E+01  0.13831252302E+02  0.00000000000E+00 0.  1.
<mgrwt>
<rscale>  1 0.30000000E+03</rscale>
<asrwt>0</asrwt>
<pdfrwt beam="1">  1        1 0.11515477E+00 0.30000000E+03</pdfrwt>
<pdfrwt beam="2">0</pdfrwt>
<totfact> 0.27708877E+01</totfact>
</mgrwt>
</event>
<event>
 6    1  0.1940992E-004  0.3000000E+03  0.7818608E-02  0.1093470E+00
          1   -1    0    0  502    0  0.00000000000E+00  0.00000000000E+00  0.44131618782E+02  0.44131618782E+02  0.00000000000E+00 0.  1.
         13   -1    0    0    0    0 -0.00000000000E+00 -0.00000000000E+00 -0.10000000000E+04  0.10000000000E+04  0.00000000000E+00 0.  1.
    9000005    2    1    2  501    0  0.55089956641E+02 -0.92653017245E+01 -0.92352089957E+03  0.97957847240E+03  0.32181109756E+03 0.  0.
         13    1    3    3    0    0  0.63028752624E+02  0.11340798860E+03 -0.15891487257E+03  0.20515343590E+03  0.00000000000E+00 0.  1.
          1    1    3    3  501    0 -0.79387959830E+01 -0.12267329033E+03 -0.76460602700E+03  0.77442503650E+03  0.00000000000E+00 0.  1.
         21    1    1    2  502  501 -0.55089956641E+02  0.92653017245E+01 -0.32347481649E+02  0.64553146382E+02  0.00000000000E+00 0.  1.
<mgrwt>
<rscale>  1 0.30000000E+03</rscale>
<asrwt>0</asrwt>
<pdfrwt beam="1">  1        1 0.16047895E+00 0.30000000E+03</pdfrwt>
<pdfrwt beam="2">0</pdfrwt>
<totfact> 0.15915650E+01</totfact>
</mgrwt>
</event>
<event>
 6    1  0.1940992E-004  0.3000000E+03  0.7818608E-02  0.1093470E+00
          1   -1    0    0  502    0  0.00000000000E+00  0.00000000000E+00  0.31705458837E+02  0.31705458837E+02  0.00000000000E+00 0.  1.
         13   -1    0    0    0    0 -0.00000000000E+00 -0.00000000000E+00 -0.10000000000E+04  0.10000000000E+04  0.00000000000E+00 0.  1.
    9000005    2    1    2  501    0  0.27940633287E+02 -0.13778811946E+02 -0.92204668700E+03  0.97594347661E+03  0.31831594664E+03 0.  0.
         13    1    3    3    0    0 -0.46755325085E+02  0.13787969043E+03 -0.34043718263E+03  0.37026253493E+03  0.00000000000E+00 0.  1.
          3    1    3    3  501    0  0.74695958371E+02 -0.15165850238E+03 -0.58160950437E+03  0.60568094168E+03  0.00000000000E+00 0.  1.
         21    1    1    2  502  501 -0.27940633287E+02  0.13778811946E+02 -0.46247854167E+02  0.55761982230E+02  0.00000000000E+00 0.  1.
<mgrwt>
<rscale>  1 0.30000000E+03</rscale>
<asrwt>0</asrwt>
<pdfrwt beam="1">  1        1 0.11529282E+00 0.30000000E+03</pdfrwt>
<pdfrwt beam="2">0</pdfrwt>
<totfact> 0.27657950E+01</totfact>
</mgrwt>
</event>
<event>
 6    1  0.1940992E-004  0.3000000E+03  0.7818608E-02  0.1093470E+00
          1   -1    0    0  502    0  0.00000000000E+00  0.00000000000E+00  0.37873507375E+02  0.37873507375E+02  0.00000000000E+00 0.  1.
         13   -1    0    0    0    0 -0.00000000000E+00 -0.00000000000E+00 -0.10000000000E+04  0.10000000000E+04  0.00000000000E+00 0.  1.
    9000005    2    1    2  501    0 -0.69890199982E+01  0.14772250835E+02 -0.96676218893E+03  0.10208865867E+04  0.32758697633E+03 0.  0.
         13    1    3    3    0    0  0.77776212632E+02 -0.34565100558E+02 -0.49628275434E+02  0.98523353325E+02  0.00000000000E+00 0.  1.
          1    1    3    3  501    0 -0.84765232630E+02  0.49337351393E+02 -0.91713391350E+03  0.92236323333E+03  0.00000000000E+00 0.  1.
         21    1    1    2  502  501  0.69890199982E+01 -0.14772250835E+02  0.46356963098E+01  0.16986920720E+02  0.00000000000E+00 0. -1.
<mgrwt>
<rscale>  1 0.30000000E+03</rscale>
<asrwt>0</asrwt>
<pdfrwt beam="1">  1        1 0.13772214E+00 0.30000000E+03</pdfrwt>
<pdfrwt beam="2">0</pdfrwt>
<totfact> 0.20798584E+01</totfact>
</mgrwt>
</event>
<event>
 6    1  0.1940992E-004  0.3000000E+03  0.7818608E-02  0.1093470E+00
          1   -1    0    0  502    0  0.00000000000E+00  0.00000000000E+00  0.28340720530E+02  0.28340720530E+02  0.00000000000E+00 0.  1.
         13   -1    0    0    0    0 -0.00000000000E+00 -0.00000000000E+00 -0.10000000000E+04  0.10000000000E+04  0.00000000000E+00 0.  1.
    9000005    2    1    2  501    0  0.42812946402E+01  0.12501201263E+02 -0.96260095911E+03  0.10123200250E+04  0.31307605636E+03 0.  0.
         13    1    3    3    0    0 -0.66810418978E+02 -0.11874678454E+03 -0.25470330525E+03  0.28885671989E+03  0.00000000000E+00 0.  1.
          3    1    3    3  501    0  0.71091713618E+02  0.13124798581E+03 -0.70789765386E+03  0.72346330513E+03  0.00000000000E+00 0.  1.
         21    1    1    2  502  501 -0.42812946402E+01 -0.12501201263E+02 -0.90583203588E+01  0.16020695507E+02  0.00000000000E+00 0.  1.
<mgrwt>
<rscale>  1 0.30000000E+03</rscale>
<asrwt>0</asrwt>
<pdfrwt beam="1">  1        1 0.10305738E+00 0.30000000E+03</pdfrwt>
<pdfrwt beam="2">0</pdfrwt>
<totfact> 0.32745732E+01</totfact>
</mgrwt>
</event>
<event>
 6    1  0.1940992E-004  0.3000000E+03  0.7818608E-02  0.1093470E+00
          1   -1    0    0  502    0  0.00000000000E+00  0.00000000000E+00  0.36165535044E+02  0.36165535044E+02  0.00000000000E+00 0.  1.
         13   -1    0    0    0    0 -0.00000000000E+00 -0.00000000000E+00 -0.10000000000E+04  0.10000000000E+04  0.00000000000E+00 0.  1.
    9000005    2    1    2  501    0 -0.44885717786E+02  0.22924630089E+02 -0.81801658969E+03  0.88188294020E+03  0.32561651198E+03 0.  0.
         13    1    3    3    0    0 -0.52411374172E+02  0.25763116919E+01 -0.84535492685E+03  0.84698201980E+03  0.00000000000E+00 0.  1.
          3    1    3    3  501    0  0.75256563858E+01  0.20348318397E+02  0.27338337159E+02  0.34900920392E+02  0.00000000000E+00 0.  1.
         21    1    1    2  502  501  0.44885717786E+02 -0.22924630089E+02 -0.14581787527E+03  0.15428259485E+03  0.00000000000E+00 0. -1.
<mgrwt>
<rscale>  1 0.30000000E+03</rscale>
<asrwt>0</asrwt>
<pdfrwt beam="1">  1        1 0.13151131E+00 0.30000000E+03</pdfrwt>
<pdfrwt beam="2">0</pdfrwt>
<totfact> 0.22451558E+01</totfact>
</mgrwt>
</event>
<event>
 6    1  0.1940992E-004  0.3000000E+03  0.7818608E-02  0.1093470E+00
          1   -1    0    0  502    0  0.00000000000E+00  0.00000000000E+00  0.33576724245E+02  0.33576724245E+02  0.00000000000E+00 0.  1.
         13   -1    0    0    0    0 -0.00000000000E+00 -0.00000000000E+00 -0.10000000000E+04  0.10000000000E+04  0.00000000000E+00 0.  1.
    9000005    2    1    2  501    0 -0.86308969633E+01  0.90614436699E+01 -0.96296219593E+03  0.10205928413E+04  0.33787121022E+03 0.  0.
         13    1    3    3    0    0  0.63546702931E+02 -0.24951047417E+01 -0.94629731738E+01  0.64295854162E+02  0.00000000000E+00 0.  1.
          3    1    3    3  501    0 -0.72177599895E+02  0.11556548412E+02 -0.95349922276E+03  0.95629698710E+03  0.00000000000E+00 0.  1.
         21    1    1    2  502  501  0.86308969633E+01 -0.90614436699E+01 -0.34610798255E+01  0.12983882984E+02  0.00000000000E+00 0. -1.
<mgrwt>
<rscale>  1 0.30000000E+03</rscale>
<asrwt>0</asrwt>
<pdfrwt beam="1">  1        1 0.12209744E+00 0.30000000E+03</pdfrwt>
<pdfrwt beam="2">0</pdfrwt>
<totfact> 0.25298861E+01</totfact>
</mgrwt>
</event>
<event>
 6    1  0.1940992E-004  0.3000000E+03  0.7818608E-02  0.1093470E+00
          1   -1    0    0  502    0  0.00000000000E+00  0.00000000000E+00  0.36369804001E+02  0.36369804001E+02  0.00000000000E+00 0.  1.
         13   -1    0    0    0    0 -0.00000000000E+00 -0.00000000000E+00 -0.10000000000E+04  0.10000000000E+04  0.00000000000E+00 0.  1.
    9000005    2    1    2  501    0  0.15124327418E+02  0.12375496100E+02 -0.96461574859E+03  0.10168027527E+04  0.32097102243E+03 0.  0.
         13    1    3    3    0    0  0.11345214158E+03  0.95182472925E+02 -0.76622041401E+03  0.78040041929E+03  0.00000000000E+00 0.  1.
          1    1    3    3  501    0 -0.98327814159E+02 -0.82806976826E+02 -0.19839533458E+03  0.23640233339E+03  0.00000000000E+00 0.  1.
         21    1    1    2  502  501 -0.15124327418E+02 -0.12375496100E+02  0.98555259042E+00  0.19567051323E+02  0.00000000000E+00 0.  1.
<mgrwt>
<rscale>  1 0.30000000E+03</rscale>
<asrwt>0</asrwt>
<pdfrwt beam="1">  1        1 0.13225411E+00 0.30000000E+03</pdfrwt>
<pdfrwt beam="2">0</pdfrwt>
<totfact> 0.22244931E+01</totfact>
</mgrwt>
</event>
<event>
 6    1  0.1940992E-004  0.3000000E+03  0.7818608E-02  0.1093470E+00
          1   -1    0    0  502    0  0.00000000000E+00  0.00000000000E+00  0.41143843427E+02  0.41143843427E+02  0.00000000000E+00 0.  1.
         13   -1    0    0    0    0 -0.00000000000E+00 -0.00000000000E+00 -0.10000000000E+04  0.10000000000E+04  0.00000000000E+00 0.  1.
    9000005    2    1    2  501    0 -0.63216895326E+01  0.10069371455E+02 -0.97291842520E+03  0.10227290831E+04  0.31506056445E+03 0.  0.
         13    1    3    3    0    0  0.92507957683E+02  0.12261480508E+03 -0.35292420591E+03  0.38489947750E+03  0.00000000000E+00 0.  1.
          3    1    3    3  501    0 -0.98829647216E+02 -0.11254543362E+03 -0.61999421928E+03  0.63782960557E+03  0.00000000000E+00 0.  1.
         21    1    1    2  502  501  0.63216895326E+01 -0.10069371455E+02  0.14062268626E+02  0.18414760355E+02  0.00000000000E+00 0.  1.
<mgrwt>
<rscale>  1 0.30000000E+03</rscale>
<asrwt>0</asrwt>
<pdfrwt beam="1">  1        1 0.14961429E+00 0.30000000E+03</pdfrwt>
<pdfrwt beam="2">0</pdfrwt>
<totfact> 0.18046311E+01</totfact>
</mgrwt>
</event>
<event>
 6    1  0.1940992E-004  0.3000000E+03  0.7818608E-02  0.1093470E+00
          3   -1    0    0  502    0  0.00000000000E+00  0.00000000000E+00  0.26860452752E+02  0.26860452752E+02  0.00000000000E+00 0.  1.
         13   -1    0    0    0    0 -0.00000000000E+00 -0.00000000000E+00 -0.10000000000E+04  0.10000000000E+04  0.00000000000E+00 0.  1.
    9000005    2    1    2  501    0 -0.12018890800E+02  0.49714683716E+01 -0.96372728180E+03  0.10108055477E+04  0.30461190462E+03 0.  0.
         13    1    3    3    0    0  0.31135811894E+02  0.85167280968E+02 -0.75710563352E+02  0.11813125722E+03  0.00000000000E+00 0.  1.
          1    1    3    3  501    0 -0.43154702694E+02 -0.80195812596E+02 -0.88801671845E+03  0.89267429053E+03  0.00000000000E+00 0.  1.
         21    1    1    2  502  501  0.12018890800E+02 -0.49714683716E+01 -0.94122654477E+01  0.16054905004E+02  0.00000000000E+00 0.  1.
<mgrwt>
<rscale>  1 0.30000000E+03</rscale>
<asrwt>0</asrwt>
<pdfrwt beam="1">  1        3 0.97674580E-01 0.30000000E+03</pdfrwt>
<pdfrwt beam="2">0</pdfrwt>
<totfact> 0.41636919E+00</totfact>
</mgrwt>
</event>
<event>
 6    1  0.1940992E-004  0.3000000E+03  0.7818608E-02  0.1093470E+00
          1   -1    0    0  502    0  0.00000000000E+00  0.00000000000E+00  0.42556789688E+02  0.42556789688E+02  0.00000000000E+00 0.  1.
         13   -1    0    0    0    0 -0.00000000000E+00 -0.00000000000E+00 -0.10000000000E+04  0.10000000000E+04  0.00000000000E+00 0.  1.
    9000005    2    1    2  501    0  0.10423270422E+02  0.41602702529E+02 -0.94213610765E+03  0.99701848915E+03  0.32339757721E+03 0.  0.
         13    1    3    3    0    0 -0.10498764740E+03  0.11206007737E+03 -0.72606189180E+03  0.74212245470E+03  0.00000000000E+00 0.  1.
          3    1    3    3  501    0  0.11541091783E+03 -0.70457374837E+02 -0.21607421585E+03  0.25489603445E+03  0.00000000000E+00 0.  1.
         21    1    1    2  502  501 -0.10423270422E+02 -0.41602702529E+02 -0.15307102661E+02  0.45538300538E+02  0.00000000000E+00 0.  1.
<mgrwt>
<rscale>  1 0.30000000E+03</rscale>
<asrwt>0</asrwt>
<pdfrwt beam="1">  1        1 0.15475229E+00 0.30000000E+03</pdfrwt>
<pdfrwt beam="2">0</pdfrwt>
<totfact> 0.16998563E+01</totfact>
</mgrwt>
</event>
<event>
 6    1  0.1940992E-004  0.3000000E+03  0.7818608E-02  0.1093470E+00
          1   -1    0    0  502    0  0.00000000000E+00  0.00000000000E+00  0.40871201580E+02  0.40871201580E+02  0.00000000000E+00 0.  1.
         13   -1    0    0    0    0 -0.00000000000E+00 -0.00000000000E+00 -0.10000000000E+04  0.10000000000E+04  0.00000000000E+00 0.  1.
    9000005    2    1    2  501    0  0.62600736032E+01  0.24052924310E+02 -0.96741693233E+03  0.10146714906E+04  0.30503275445E+03 0.  0.
         13    1    3    3    0    0 -0.32404895400E+02  0.14374712003E+03 -0.28585420950E+03  0.32159903739E+03  0.00000000000E+00 0.  1.
          1    1    3    3  501    0  0.38664969004E+02 -0.11969419572E+03 -0.68156272283E+03  0.69307245326E+03  0.00000000000E+00 0.  1.
         21    1    1    2  502  501 -0.62600736032E+01 -0.24052924310E+02  0.82881339066E+01  0.26199710934E+02  0.00000000000E+00 0.  1.
<mgrwt>
<rscale>  1 0.30000000E+03</rscale>
<asrwt>0</asrwt>
<pdfrwt beam="1">  1        1 0.14862286E+00 0.30000000E+03</pdfrwt>
<pdfrwt beam="2">0</pdfrwt>
<totfact> 0.18257539E+01</totfact>
</mgrwt>
</event>
<event>
 6    1  0.1940992E-004  0.3000000E+03  0.7818608E-02  0.1093470E+00
          1   -1    0    0  502    0  0.00000000000E+00  0.00000000000E+00  0.32806062456E+02  0.32806062456E+02  0.00000000000E+00 0.  1.
         13   -1    0    0    0    0 -0.00000000000E+00 -0.00000000000E+00 -0.10000000000E+04  0.10000000000E+04  0.00000000000E+00 0.  1.
    9000005    2    1    2  501    0  0.71840384588E+01 -0.84301344585E+01 -0.95496737796E+03  0.10163085980E+04  0.34755977291E+03 0.  0.
         13    1    3    3    0    0  0.12858035087E+03  0.65939097101E+02 -0.76710563710E+03  0.78059716220E+03  0.00000000000E+00 0.  1.
          1    1    3    3  501    0 -0.12139631242E+03 -0.74369231559E+02 -0.18786174086E+03  0.23571143576E+03  0.00000000000E+00 0.  1.
         21    1    1    2  502  501 -0.71840384588E+01  0.84301344585E+01 -0.12226559584E+02  0.16497464497E+02  0.00000000000E+00 0.  1.
<mgrwt>
<rscale>  1 0.30000000E+03</rscale>
<asrwt>0</asrwt>
<pdfrwt beam="1">  1        1 0.11929502E+00 0.30000000E+03</pdfrwt>
<pdfrwt beam="2">0</pdfrwt>
<totfact> 0.26236097E+01</totfact>
</mgrwt>
</event>
<event>
 6    1  0.1940992E-004  0.3000000E+03  0.7818608E-02  0.1093470E+00
          1   -1    0    0  502    0  0.00000000000E+00  0.00000000000E+00  0.48125928281E+02  0.48125928281E+02  0.00000000000E+00 0.  1.
         13   -1    0    0    0    0 -0.00000000000E+00 -0.00000000000E+00 -0.10000000000E+04  0.10000000000E+04  0.00000000000E+00 0.  1.
    9000005    2    1    2  501    0  0.37196155293E+01  0.26396090714E+02 -0.96674083947E+03  0.10176036425E+04  0.31657342502E+03 0.  0.
         13    1    3    3    0    0 -0.12333159646E+03  0.98003069847E+01 -0.78816149156E+03  0.79781280103E+03  0.00000000000E+00 0.  1.
          3    1    3    3  501    0  0.12705121199E+03  0.16595783729E+02 -0.17857934791E+03  0.21979084149E+03  0.00000000000E+00 0.  1.
         21    1    1    2  502  501 -0.37196155293E+01 -0.26396090714E+02  0.14866767750E+02  0.30522285760E+02  0.00000000000E+00 0.  1.
<mgrwt>
<rscale>  1 0.30000000E+03</rscale>
<asrwt>0</asrwt>
<pdfrwt beam="1">  1        1 0.17500374E+00 0.30000000E+03</pdfrwt>
<pdfrwt beam="2">0</pdfrwt>
<totfact> 0.13507282E+01</totfact>
</mgrwt>
</event>
<event>
 6    1  0.1940992E-004  0.3000000E+03  0.7818608E-02  0.1093470E+00
          1   -1    0    0  502    0  0.00000000000E+00  0.00000000000E+00  0.30121951530E+02  0.30121951530E+02  0.00000000000E+00 0.  1.
         13   -1    0    0    0    0 -0.00000000000E+00 -0.00000000000E+00 -0.10000000000E+04  0.10000000000E+04  0.00000000000E+00 0.  1.
    9000005    2    1    2  501    0 -0.14222844787E+02  0.52775085882E+01 -0.95430056056E+03  0.10083779974E+04  0.32543276477E+03 0.  0.
         13    1    3    3    0    0  0.10013005244E+03 -0.86385088744E+02 -0.71980139079E+03  0.73184865454E+03  0.00000000000E+00 0.  1.
          1    1    3    3  501    0 -0.11435289723E+03  0.91662597332E+02 -0.23449916976E+03  0.27652934288E+03  0.00000000000E+00 0.  1.
         21    1    1    2  502  501  0.14222844787E+02 -0.52775085882E+01 -0.15577487910E+02  0.21743954110E+02  0.00000000000E+00 0.  1.
<mgrwt>
<rscale>  1 0.30000000E+03</rscale>
<asrwt>0</asrwt>
<pdfrwt beam="1">  1        1 0.10953460E+00 0.30000000E+03</pdfrwt>
<pdfrwt beam="2">0</pdfrwt>
<totfact> 0.29900269E+01</totfact>
</mgrwt>
</event>
<event>
 6    1  0.1940992E-004  0.3000000E+03  0.7818608E-02  0.1093470E+00
          1   -1    0    0  502    0  0.00000000000E+00  0.00000000000E+00  0.27810976970E+02  0.27810976970E+02  0.00000000000E+00 0.  1.
         13   -1    0    0    0    0 -0.00000000000E+00 -0.00000000000E+00 -0.10000000000E+04  0.10000000000E+04  0.00000000000E+00 0.  1.
    9000005    2    1    2  501    0 -0.95651675407E+01  0.26354275012E+01 -0.94409253874E+03  0.99801415940E+03  0.32345494700E+03 0.  0.
         13    1    3    3    0    0 -0.24252890556E+02  0.14951650352E+03 -0.66778297200E+03  0.68474629260E+03  0.00000000000E+00 0.  1.
          3    1    3    3  501    0  0.14687723015E+02 -0.14688107602E+03 -0.27630956674E+03  0.31326786680E+03  0.00000000000E+00 0.  1.
         21    1    1    2  502  501  0.95651675407E+01 -0.26354275012E+01 -0.28096484286E+02  0.29796817572E+02  0.00000000000E+00 0. -1.
<mgrwt>
<rscale>  1 0.30000000E+03</rscale>
<asrwt>0</asrwt>
<pdfrwt beam="1">  1        1 0.10113104E+00 0.30000000E+03</pdfrwt>
<pdfrwt beam="2">0</pdfrwt>
<totfact> 0.33667751E+01</totfact>
</mgrwt>
</event>
<event>
 6    1  0.1940992E-004  0.3000000E+03  0.7818608E-02  0.1093470E+00
          1   -1    0    0  502    0  0.00000000000E+00  0.00000000000E+00  0.30470096305E+02  0.30470096305E+02  0.00000000000E+00 0.  1.
         13   -1    0    0    0    0 -0.00000000000E+00 -0.00000000000E+00 -0.10000000000E+04  0.10000000000E+04  0.00000000000E+00 0.  1.
    9000005    2    1    2  501    0 -0.81608110103E+01 -0.24642532470E+01 -0.95509962687E+03  0.10137098973E+04  0.33958767251E+03 0.  0.
         13    1    3    3    0    0  0.38443162273E+02  0.26293699447E+01  0.15823621681E+02  0.41655459606E+02  0.00000000000E+00 0.  1.
          1    1    3    3  501    0 -0.46603973283E+02 -0.50936231917E+01 -0.97092324855E+03  0.97205443773E+03  0.00000000000E+00 0.  1.
         21    1    1    2  502  501  0.81608110103E+01  0.24642532470E+01 -0.14430276823E+02  0.16760198973E+02  0.00000000000E+00 0. -1.
<mgrwt>
<rscale>  1 0.30000000E+03</rscale>
<asrwt>0</asrwt>
<pdfrwt beam="1">  1        1 0.11080058E+00 0.30000000E+03</pdfrwt>
<pdfrwt beam="2">0</pdfrwt>
<totfact> 0.29385736E+01</totfact>
</mgrwt>
</event>
<event>
 6    1  0.1940992E-004  0.3000000E+03  0.7818608E-02  0.1093470E+00
          1   -1    0    0  502    0  0.00000000000E+00  0.00000000000E+00  0.52583276737E+02  0.52583276737E+02  0.00000000000E+00 0.  1.
         13   -1    0    0    0    0 -0.00000000000E+00 -0.00000000000E+00 -0.10000000000E+04  0.10000000000E+04  0.00000000000E+00 0.  1.
    9000005    2    1    2  501    0  0.83340310129E+02  0.60189176030E+02 -0.84831160295E+03  0.90978912743E+03  0.31227445699E+03 0.  0.
         13    1    3    3    0    0  0.64778847152E+02 -0.12093378562E+03 -0.47546509912E+03  0.49486194037E+03  0.00000000000E+00 0.  1.
          3    1    3    3  501    0  0.18561462977E+02  0.18112296165E+03 -0.37284650383E+03  0.41492718707E+03  0.00000000000E+00 0.  1.
         21    1    1    2  502  501 -0.83340310129E+02 -0.60189176030E+02 -0.99105120313E+02  0.14279414930E+03  0.00000000000E+00 0. -1.
<mgrwt>
<rscale>  1 0.30000000E+03</rscale>
<asrwt>0</asrwt>
<pdfrwt beam="1">  1        1 0.19121232E+00 0.30000000E+03</pdfrwt>
<pdfrwt beam="2">0</pdfrwt>
<totfact> 0.11281903E+01</totfact>
</mgrwt>
</event>
<event>
 6    1  0.1940992E-004  0.3000000E+03  0.7818608E-02  0.1093470E+00
          1   -1    0    0  502    0  0.00000000000E+00  0.00000000000E+00  0.33289956793E+02  0.33289956793E+02  0.00000000000E+00 0.  1.
         13   -1    0    0    0    0 -0.00000000000E+00 -0.00000000000E+00 -0.10000000000E+04  0.10000000000E+04  0.00000000000E+00 0.  1.
    9000005    2    1    2  501    0  0.20223134020E+02  0.22775406316E+00 -0.95592898514E+03  0.10103714439E+04  0.32655964683E+03 0.  0.
         13    1    3    3    0    0  0.50572967376E+02  0.15477887682E+03 -0.58841064597E+03  0.61052535904E+03  0.00000000000E+00 0.  1.
          1    1    3    3  501    0 -0.30349833356E+02 -0.15455112276E+03 -0.36751833917E+03  0.39984608483E+03  0.00000000000E+00 0.  1.
         21    1    1    2  502  501 -0.20223134020E+02 -0.22775406316E+00 -0.10781058067E+02  0.22918512922E+02  0.00000000000E+00 0. -1.
<mgrwt>
<rscale>  1 0.30000000E+03</rscale>
<asrwt>0</asrwt>
<pdfrwt beam="1">  1        1 0.12105464E+00 0.30000000E+03</pdfrwt>
<pdfrwt beam="2">0</pdfrwt>
<totfact> 0.25642327E+01</totfact>
</mgrwt>
</event>
<event>
 6    1  0.1940992E-004  0.3000000E+03  0.7818608E-02  0.1093470E+00
          1   -1    0    0  502    0  0.00000000000E+00  0.00000000000E+00  0.63251248912E+02  0.63251248912E+02  0.00000000000E+00 0.  1.
         13   -1    0    0    0    0 -0.00000000000E+00 -0.00000000000E+00 -0.10000000000E+04  0.10000000000E+04  0.00000000000E+00 0.  1.
    9000005    2    1    2  501    0  0.17563953346E+02  0.14539293549E+02 -0.96989533658E+03  0.10230196737E+04  0.32458035267E+03 0.  0.
         13    1    3    3    0    0 -0.58172604283E+01 -0.13016854516E+02 -0.98408979377E+03  0.98419307111E+03  0.00000000000E+00 0.  1.
          1    1    3    3  501    0  0.23381213774E+02  0.27556148065E+02  0.14194457188E+02  0.38826602589E+02  0.00000000000E+00 0.  1.
         21    1    1    2  502  501 -0.17563953346E+02 -0.14539293549E+02  0.33146585494E+02  0.40231575211E+02  0.00000000000E+00 0.  1.
<mgrwt>
<rscale>  1 0.30000000E+03</rscale>
<asrwt>0</asrwt>
<pdfrwt beam="1">  1        1 0.23000503E+00 0.30000000E+03</pdfrwt>
<pdfrwt beam="2">0</pdfrwt>
<totfact> 0.74000178E+00</totfact>
</mgrwt>
</event>
<event>
 6    1  0.1940992E-004  0.3000000E+03  0.7818608E-02  0.1093470E+00
          1   -1    0    0  502    0  0.00000000000E+00  0.00000000000E+00  0.30707170286E+02  0.30707170286E+02  0.00000000000E+00 0.  1.
         13   -1    0    0    0    0 -0.00000000000E+00 -0.00000000000E+00 -0.10000000000E+04  0.10000000000E+04  0.00000000000E+00 0.  1.
    9000005    2    1    2  501    0  0.19575612903E+02 -0.62098641908E+01 -0.94172516963E+03  0.99633068245E+03  0.32466408276E+03 0.  0.
         13    1    3    3    0    0 -0.49267405247E+02 -0.15394501297E+03 -0.43651304775E+03  0.46547823267E+03  0.00000000000E+00 0.  1.
          1    1    3    3  501    0  0.68843018150E+02  0.14773514878E+03 -0.50521212188E+03  0.53085244977E+03  0.00000000000E+00 0.  1.
         21    1    1    2  502  501 -0.19575612903E+02  0.62098641908E+01 -0.27567660083E+02  0.34376487841E+02  0.00000000000E+00 0.  1.
<mgrwt>
<rscale>  1 0.30000000E+03</rscale>
<asrwt>0</asrwt>
<pdfrwt beam="1">  1        1 0.11166267E+00 0.30000000E+03</pdfrwt>
<pdfrwt beam="2">0</pdfrwt>
<totfact> 0.29042507E+01</totfact>
</mgrwt>
</event>
<event>
 6    1  0.1940992E-004  0.3000000E+03  0.7818608E-02  0.1093470E+00
          1   -1    0    0  502    0  0.00000000000E+00  0.00000000000E+00  0.28612016658E+02  0.28612016658E+02  0.00000000000E+00 0.  1.
         13   -1    0    0    0    0 -0.00000000000E+00 -0.00000000000E+00 -0.10000000000E+04  0.10000000000E+04  0.00000000000E+00 0.  1.
    9000005    2    1    2  501    0 -0.12060652816E+01 -0.89263577726E+01 -0.95899727514E+03  0.10132932665E+04  0.32711822902E+03 0.  0.
         13    1    3    3    0    0 -0.91796856718E+02  0.12237020652E+02 -0.89638343882E+03  0.90115463543E+03  0.00000000000E+00 0.  1.
          1    1    3    3  501    0  0.90590791436E+02 -0.21163378424E+02 -0.62613836327E+02  0.11213863107E+03  0.00000000000E+00 0.  1.
         21    1    1    2  502  501  0.12060652816E+01  0.89263577726E+01 -0.12390708197E+02  0.15318750150E+02  0.00000000000E+00 0.  1.
<mgrwt>
<rscale>  1 0.30000000E+03</rscale>
<asrwt>0</asrwt>
<pdfrwt beam="1">  1        1 0.10404392E+00 0.30000000E+03</pdfrwt>
<pdfrwt beam="2">0</pdfrwt>
<totfact> 0.32287750E+01</totfact>
</mgrwt>
</event>
<event>
 6    1  0.1940992E-004  0.3000000E+03  0.7818608E-02  0.1093470E+00
          1   -1    0    0  502    0  0.00000000000E+00  0.00000000000E+00  0.30333296692E+02  0.30333296692E+02  0.00000000000E+00 0.  1.
         13   -1    0    0    0    0 -0.00000000000E+00 -0.00000000000E+00 -0.10000000000E+04  0.10000000000E+04  0.00000000000E+00 0.  1.
    9000005    2    1    2  501    0 -0.24356458683E+02 -0.45452343905E+01 -0.94073037932E+03  0.99223858471E+03  0.31456297647E+03 0.  0.
         13    1    3    3    0    0  0.91823012246E+02 -0.70131978773E+02 -0.75367421284E+03  0.76247936308E+03  0.00000000000E+00 0.  1.
          3    1    3    3  501    0 -0.11617947093E+03  0.65586744382E+02 -0.18705616649E+03  0.22975922163E+03  0.00000000000E+00 0.  1.
         21    1    1    2  502  501  0.24356458683E+02  0.45452343905E+01 -0.28936323984E+02  0.38094711981E+02  0.00000000000E+00 0.  1.
<mgrwt>
<rscale>  1 0.30000000E+03</rscale>
<asrwt>0</asrwt>
<pdfrwt beam="1">  1        1 0.11030313E+00 0.30000000E+03</pdfrwt>
<pdfrwt beam="2">0</pdfrwt>
<totfact> 0.29586407E+01</totfact>
</mgrwt>
</event>
<event>
 6    1  0.1940992E-004  0.3000000E+03  0.7818608E-02  0.1093470E+00
          1   -1    0    0  502    0  0.00000000000E+00  0.00000000000E+00  0.35083115805E+02  0.35083115805E+02  0.00000000000E+00 0.  1.
         13   -1    0    0    0    0 -0.00000000000E+00 -0.00000000000E+00 -0.10000000000E+04  0.10000000000E+04  0.00000000000E+00 0.  1.
    9000005    2    1    2  501    0  0.94817532254E+01  0.13991586695E+02 -0.96123722482E+03  0.10177854849E+04  0.33410271282E+03 0.  0.
         13    1    3    3    0    0  0.12970820827E+03 -0.25715118691E+02 -0.16453863661E+03  0.21108872438E+03  0.00000000000E+00 0.  1.
          3    1    3    3  501    0 -0.12022645505E+03  0.39706705386E+02 -0.79669858821E+03  0.80669676050E+03  0.00000000000E+00 0.  1.
         21    1    1    2  502  501 -0.94817532254E+01 -0.13991586695E+02 -0.36796593753E+01  0.17297630924E+02  0.00000000000E+00 0. -1.
<mgrwt>
<rscale>  1 0.30000000E+03</rscale>
<asrwt>0</asrwt>
<pdfrwt beam="1">  1        1 0.12757524E+00 0.30000000E+03</pdfrwt>
<pdfrwt beam="2">0</pdfrwt>
<totfact> 0.23589233E+01</totfact>
</mgrwt>
</event>
<event>
 6    1  0.1940992E-004  0.3000000E+03  0.7818608E-02  0.1093470E+00
          1   -1    0    0  502    0  0.00000000000E+00  0.00000000000E+00  0.33930238000E+02  0.33930238000E+02  0.00000000000E+00 0.  1.
         13   -1    0    0    0    0 -0.00000000000E+00 -0.00000000000E+00 -0.10000000000E+04  0.10000000000E+04  0.00000000000E+00 0.  1.
    9000005    2    1    2  501    0 -0.10774952072E+02 -0.13830031413E+01 -0.96274571384E+03  0.10225697105E+04  0.34445825717E+03 0.  0.
         13    1    3    3    0    0 -0.16665098496E+03 -0.44732250103E+02 -0.37201819259E+03  0.41008665012E+03  0.00000000000E+00 0.  1.
          3    1    3    3  501    0  0.15587603289E+03  0.43349246961E+02 -0.59072752125E+03  0.61248306034E+03  0.00000000000E+00 0.  1.
         21    1    1    2  502  501  0.10774952072E+02  0.13830031413E+01 -0.33240481570E+01  0.11360527540E+02  0.00000000000E+00 0. -1.
<mgrwt>
<rscale>  1 0.30000000E+03</rscale>
<asrwt>0</asrwt>
<pdfrwt beam="1">  1        1 0.12338294E+00 0.30000000E+03</pdfrwt>
<pdfrwt beam="2">0</pdfrwt>
<totfact> 0.24883717E+01</totfact>
</mgrwt>
</event>
<event>
 6    1  0.1940992E-004  0.3000000E+03  0.7818608E-02  0.1093470E+00
          1   -1    0    0  502    0  0.00000000000E+00  0.00000000000E+00  0.42774454563E+02  0.42774454563E+02  0.00000000000E+00 0.  1.
         13   -1    0    0    0    0 -0.00000000000E+00 -0.00000000000E+00 -0.10000000000E+04  0.10000000000E+04  0.00000000000E+00 0.  1.
    9000005    2    1    2  501    0 -0.14533070729E+02  0.59729260485E+01 -0.96795379400E+03  0.10237486482E+04  0.33298627809E+03 0.  0.
         13    1    3    3    0    0  0.39177086778E+02 -0.42895033942E+02 -0.52718786347E+01  0.58331987533E+02  0.00000000000E+00 0.  1.
          3    1    3    3  501    0 -0.53710157507E+02  0.48867959990E+02 -0.96268191536E+03  0.96541666067E+03  0.00000000000E+00 0.  1.
         21    1    1    2  502  501  0.14533070729E+02 -0.59729260485E+01  0.10728248561E+02  0.19025806359E+02  0.00000000000E+00 0.  1.
<mgrwt>
<rscale>  1 0.30000000E+03</rscale>
<asrwt>0</asrwt>
<pdfrwt beam="1">  1        1 0.15554380E+00 0.30000000E+03</pdfrwt>
<pdfrwt beam="2">0</pdfrwt>
<totfact> 0.16843793E+01</totfact>
</mgrwt>
</event>
<event>
 6    1  0.1940992E-004  0.3000000E+03  0.7818608E-02  0.1093470E+00
          1   -1    0    0  502    0  0.00000000000E+00  0.00000000000E+00  0.40709244033E+02  0.40709244033E+02  0.00000000000E+00 0.  1.
         13   -1    0    0    0    0 -0.00000000000E+00 -0.00000000000E+00 -0.10000000000E+04  0.10000000000E+04  0.00000000000E+00 0.  1.
    9000005    2    1    2  501    0  0.13699470438E+02  0.73920888250E+01 -0.97013072855E+03  0.10217402305E+04  0.32024545235E+03 0.  0.
         13    1    3    3    0    0 -0.13818404698E+03 -0.61523823083E+01 -0.68055529010E+03  0.69446971535E+03  0.00000000000E+00 0.  1.
          1    1    3    3  501    0  0.15188351741E+03  0.13544471133E+02 -0.28957543845E+03  0.32727051519E+03  0.00000000000E+00 0.  1.
         21    1    1    2  502  501 -0.13699470438E+02 -0.73920888250E+01  0.10839972582E+02  0.18969013497E+02  0.00000000000E+00 0. -1.
<mgrwt>
<rscale>  1 0.30000000E+03</rscale>
<asrwt>0</asrwt>
<pdfrwt beam="1">  1        1 0.14803393E+00 0.30000000E+03</pdfrwt>
<pdfrwt beam="2">0</pdfrwt>
<totfact> 0.18384475E+01</totfact>
</mgrwt>
</event>
<event>
 6    1  0.1940992E-004  0.3000000E+03  0.7818608E-02  0.1093470E+00
          1   -1    0    0  502    0  0.00000000000E+00  0.00000000000E+00  0.17436650557E+02  0.17436650557E+02  0.00000000000E+00 0.  1.
         13   -1    0    0    0    0 -0.00000000000E+00 -0.00000000000E+00 -0.10000000000E+04  0.10000000000E+04  0.00000000000E+00 0.  1.
    9000005    2    1    2  501    0 -0.16204002463E+02 -0.83368620997E+01 -0.97147587598E+03  0.99610580357E+03  0.21938395868E+03 0.  0.
         13    1    3    3    0    0  0.16359235101E+02 -0.86081407117E+02 -0.80254700271E+03  0.80731612444E+03  0.00000000000E+00 0.  1.
          1    1    3    3  501    0 -0.32563237564E+02  0.77744545017E+02 -0.16892887327E+03  0.18878967912E+03  0.00000000000E+00 0.  1.
         21    1    1    2  502  501  0.16204002463E+02  0.83368620997E+01 -0.11087473464E+02  0.21330846989E+02  0.00000000000E+00 0. -1.
<mgrwt>
<rscale>  1 0.30000000E+03</rscale>
<asrwt>0</asrwt>
<pdfrwt beam="1">  1        1 0.63406136E-01 0.30000000E+03</pdfrwt>
<pdfrwt beam="2">0</pdfrwt>
<totfact> 0.64422055E+01</totfact>
</mgrwt>
</event>
<event>
 6    1  0.1940992E-004  0.3000000E+03  0.7818608E-02  0.1093470E+00
          1   -1    0    0  502    0  0.00000000000E+00  0.00000000000E+00  0.10114314759E+03  0.10114314759E+03  0.00000000000E+00 0.  1.
         13   -1    0    0    0    0 -0.00000000000E+00 -0.00000000000E+00 -0.10000000000E+04  0.10000000000E+04  0.00000000000E+00 0.  1.
    9000005    2    1    2  501    0  0.42430971061E+02  0.14882091131E+03 -0.86531968108E+03  0.94279924083E+03  0.34079936488E+03 0.  0.
         13    1    3    3    0    0 -0.51770965856E+02  0.23760949452E+03 -0.52136876517E+03  0.57529461503E+03  0.00000000000E+00 0.  1.
          1    1    3    3  501    0  0.94201936917E+02 -0.88788583211E+02 -0.34395091591E+03  0.36750462579E+03  0.00000000000E+00 0.  1.
         21    1    1    2  502  501 -0.42430971061E+02 -0.14882091131E+03 -0.33537171330E+02  0.15834390676E+03  0.00000000000E+00 0.  1.
<mgrwt>
<rscale>  1 0.30000000E+03</rscale>
<asrwt>0</asrwt>
<pdfrwt beam="1">  1        1 0.36779404E+00 0.30000000E+03</pdfrwt>
<pdfrwt beam="2">0</pdfrwt>
<totfact> 0.15863731E+00</totfact>
</mgrwt>
</event>
<event>
 6    1  0.1940992E-004  0.3000000E+03  0.7818608E-02  0.1093470E+00
          1   -1    0    0  502    0  0.00000000000E+00  0.00000000000E+00  0.41414289341E+02  0.41414289341E+02  0.00000000000E+00 0.  1.
         13   -1    0    0    0    0 -0.00000000000E+00 -0.00000000000E+00 -0.10000000000E+04  0.10000000000E+04  0.00000000000E+00 0.  1.
    9000005    2    1    2  501    0 -0.31249760434E+02  0.86341498449E+01 -0.95627248057E+03  0.10089112571E+04  0.31999026791E+03 0.  0.
         13    1    3    3    0    0  0.14440184008E+03 -0.10054498198E+02 -0.44990503096E+03  0.47261773267E+03  0.00000000000E+00 0.  1.
          1    1    3    3  501    0 -0.17565160052E+03  0.18688648043E+02 -0.50636744961E+03  0.53629352444E+03  0.00000000000E+00 0.  1.
         21    1    1    2  502  501  0.31249760434E+02 -0.86341498449E+01 -0.23132300891E+01  0.32503032230E+02  0.00000000000E+00 0.  1.
<mgrwt>
<rscale>  1 0.30000000E+03</rscale>
<asrwt>0</asrwt>
<pdfrwt beam="1">  1        1 0.15059773E+00 0.30000000E+03</pdfrwt>
<pdfrwt beam="2">0</pdfrwt>
<totfact> 0.17839771E+01</totfact>
</mgrwt>
</event>
<event>
 6    1  0.1940992E-004  0.3000000E+03  0.7818608E-02  0.1093470E+00
          1   -1    0    0  502    0  0.00000000000E+00  0.00000000000E+00  0.36644741962E+02  0.36644741962E+02  0.00000000000E+00 0.  1.
         13   -1    0    0    0    0 -0.00000000000E+00 -0.00000000000E+00 -0.10000000000E+04  0.10000000000E+04  0.00000000000E+00 0.  1.
    9000005    2    1    2  501    0 -0.23399586886E+02 -0.12292177734E+02 -0.95395341361E+03  0.10085906339E+04  0.32638828590E+03 0.  0.
         13    1    3    3    0    0  0.21670284924E+02 -0.16368424083E+03 -0.56949935580E+03  0.59295164069E+03  0.00000000000E+00 0.  1.
          1    1    3    3  501    0 -0.45069871810E+02  0.15139206310E+03 -0.38445405781E+03  0.41563899322E+03  0.00000000000E+00 0.  1.
         21    1    1    2  502  501  0.23399586886E+02  0.12292177734E+02 -0.94018444275E+01  0.28054108051E+02  0.00000000000E+00 0.  1.
<mgrwt>
<rscale>  1 0.30000000E+03</rscale>
<asrwt>0</asrwt>
<pdfrwt beam="1">  1        1 0.13325389E+00 0.30000000E+03</pdfrwt>
<pdfrwt beam="2">0</pdfrwt>
<totfact> 0.21970749E+01</totfact>
</mgrwt>
</event>
<event>
 6    1  0.1940992E-004  0.3000000E+03  0.7818608E-02  0.1093470E+00
          1   -1    0    0  502    0  0.00000000000E+00  0.00000000000E+00  0.26926407308E+02  0.26926407308E+02  0.00000000000E+00 0.  1.
         13   -1    0    0    0    0 -0.00000000000E+00 -0.00000000000E+00 -0.10000000000E+04  0.10000000000E+04  0.00000000000E+00 0.  1.
    9000005    2    1    2  501    0  0.20512444272E+02 -0.22756104718E+02 -0.84882070983E+03  0.89895227097E+03  0.29441465210E+03 0.  0.
         13    1    3    3    0    0  0.12312824034E+03  0.31691857125E+02 -0.18153257382E+03  0.22162809554E+03  0.00000000000E+00 0.  1.
          3    1    3    3  501    0 -0.10261579607E+03 -0.54447961843E+02 -0.66728813602E+03  0.67732417543E+03  0.00000000000E+00 0.  1.
         21    1    1    2  502  501 -0.20512444272E+02  0.22756104718E+02 -0.12425288286E+03  0.12797413634E+03  0.00000000000E+00 0.  1.
<mgrwt>
<rscale>  1 0.30000000E+03</rscale>
<asrwt>0</asrwt>
<pdfrwt beam="1">  1        1 0.97914415E-01 0.30000000E+03</pdfrwt>
<pdfrwt beam="2">0</pdfrwt>
<totfact> 0.35294593E+01</totfact>
</mgrwt>
</event>
<event>
 6    1  0.1940992E-004  0.3000000E+03  0.7818608E-02  0.1093470E+00
          1   -1    0    0  502    0  0.00000000000E+00  0.00000000000E+00  0.29958491159E+02  0.29958491159E+02  0.00000000000E+00 0.  1.
         13   -1    0    0    0    0 -0.00000000000E+00 -0.00000000000E+00 -0.10000000000E+04  0.10000000000E+04  0.00000000000E+00 0.  1.
    9000005    2    1    2  501    0  0.65849886496E+01 -0.87791409141E+01 -0.95794331161E+03  0.10136244235E+04  0.33114747202E+03 0.  0.
         13    1    3    3    0    0 -0.62090855112E+02 -0.74368580424E+02 -0.67371581393E+02  0.11800377122E+03  0.00000000000E+00 0.  1.
          1    1    3    3  501    0  0.68675843762E+02  0.65589439509E+02 -0.89057173022E+03  0.89562065226E+03  0.00000000000E+00 0.  1.
         21    1    1    2  502  501 -0.65849886496E+01  0.87791409141E+01 -0.12098197226E+02  0.16334067676E+02  0.00000000000E+00 0.  1.
<mgrwt>
<rscale>  1 0.30000000E+03</rscale>
<asrwt>0</asrwt>
<pdfrwt beam="1">  1        1 0.10894020E+00 0.30000000E+03</pdfrwt>
<pdfrwt beam="2">0</pdfrwt>
<totfact> 0.30146277E+01</totfact>
</mgrwt>
</event>
<event>
 6    1  0.1940992E-004  0.3000000E+03  0.7818608E-02  0.1093470E+00
          1   -1    0    0  502    0  0.00000000000E+00  0.00000000000E+00  0.36882984703E+02  0.36882984703E+02  0.00000000000E+00 0.  1.
         13   -1    0    0    0    0 -0.00000000000E+00 -0.00000000000E+00 -0.10000000000E+04  0.10000000000E+04  0.00000000000E+00 0.  1.
    9000005    2    1    2  501    0 -0.21019071662E+02 -0.45646311974E+02 -0.84005226044E+03  0.90395322483E+03  0.33002764316E+03 0.  0.
         13    1    3    3    0    0 -0.50938437007E+02  0.10013569583E+03 -0.66395707706E+03  0.67339504166E+03  0.00000000000E+00 0.  1.
          1    1    3    3  501    0  0.29919365345E+02 -0.14578200781E+03 -0.17609518337E+03  0.23055818318E+03  0.00000000000E+00 0.  1.
         21    1    1    2  502  501  0.21019071662E+02  0.45646311974E+02 -0.12306475486E+03  0.13292975987E+03  0.00000000000E+00 0.  1.
<mgrwt>
<rscale>  1 0.30000000E+03</rscale>
<asrwt>0</asrwt>
<pdfrwt beam="1">  1        1 0.13412023E+00 0.30000000E+03</pdfrwt>
<pdfrwt beam="2">0</pdfrwt>
<totfact> 0.21736758E+01</totfact>
</mgrwt>
</event>
<event>
 6    1  0.1940992E-004  0.3000000E+03  0.7818608E-02  0.1093470E+00
          1   -1    0    0  502    0  0.00000000000E+00  0.00000000000E+00  0.37988582845E+02  0.37988582845E+02  0.00000000000E+00 0.  1.
         13   -1    0    0    0    0 -0.00000000000E+00 -0.00000000000E+00 -0.10000000000E+04  0.10000000000E+04  0.00000000000E+00 0.  1.
    9000005    2    1    2  501    0  0.23534401500E+02  0.10109519707E+02 -0.96397058193E+03  0.10122998933E+04  0.30798655937E+03 0.  0.
         13    1    3    3    0    0  0.12439282418E+03 -0.35971536746E+01 -0.16395011996E+03  0.20583040606E+03  0.00000000000E+00 0.  1.
          3    1    3    3  501    0 -0.10085842268E+03  0.13706673382E+02 -0.80002046197E+03  0.80646948727E+03  0.00000000000E+00 0.  1.
         21    1    1    2  502  501 -0.23534401500E+02 -0.10109519707E+02  0.19591647775E+01  0.25688689521E+02  0.00000000000E+00 0. -1.
<mgrwt>
<rscale>  1 0.30000000E+03</rscale>
<asrwt>0</asrwt>
<pdfrwt beam="1">  1        1 0.13814059E+00 0.30000000E+03</pdfrwt>
<pdfrwt beam="2">0</pdfrwt>
<totfact> 0.20693037E+01</totfact>
</mgrwt>
</event>
<event>
 6    1  0.1940992E-004  0.3000000E+03  0.7818608E-02  0.1093470E+00
          1   -1    0    0  502    0  0.00000000000E+00  0.00000000000E+00  0.36659949767E+02  0.36659949767E+02  0.00000000000E+00 0.  1.
         13   -1    0    0    0    0 -0.00000000000E+00 -0.00000000000E+00 -0.10000000000E+04  0.10000000000E+04  0.00000000000E+00 0.  1.
    9000005    2    1    2  501    0 -0.29447708630E+02  0.47249726336E+01 -0.93637369262E+03  0.99645202328E+03  0.33945758137E+03 0.  0.
         13    1    3    3    0    0  0.51590567045E+02 -0.13656506169E+03 -0.65736141777E+03  0.67337629618E+03  0.00000000000E+00 0.  1.
          3    1    3    3  501    0 -0.81038275674E+02  0.14129003432E+03 -0.27901227485E+03  0.32307572710E+03  0.00000000000E+00 0.  1.
         21    1    1    2  502  501  0.29447708630E+02 -0.47249726336E+01 -0.26966357612E+02  0.40207926492E+02  0.00000000000E+00 0. -1.
<mgrwt>
<rscale>  1 0.30000000E+03</rscale>
<asrwt>0</asrwt>
<pdfrwt beam="1">  1        1 0.13330919E+00 0.30000000E+03</pdfrwt>
<pdfrwt beam="2">0</pdfrwt>
<totfact> 0.21955713E+01</totfact>
</mgrwt>
</event>
<event>
 6    1  0.1940992E-004  0.3000000E+03  0.7818608E-02  0.1093470E+00
          1   -1    0    0  502    0  0.00000000000E+00  0.00000000000E+00  0.36938215519E+02  0.36938215519E+02  0.00000000000E+00 0.  1.
         13   -1    0    0    0    0 -0.00000000000E+00 -0.00000000000E+00 -0.10000000000E+04  0.10000000000E+04  0.00000000000E+00 0.  1.
    9000005    2    1    2  501    0  0.10108955588E+02  0.69876474906E+01 -0.97352436627E+03  0.10207987044E+04  0.30680496255E+03 0.  0.
         13    1    3    3    0    0  0.12977963163E+01  0.14409227321E+03 -0.70036384554E+03  0.71503411360E+03  0.00000000000E+00 0.  1.
          1    1    3    3  501    0  0.88111592718E+01 -0.13710462571E+03 -0.27316052073E+03  0.30576459083E+03  0.00000000000E+00 0.  1.
         21    1    1    2  502  501 -0.10108955588E+02 -0.69876474906E+01  0.10462581787E+02  0.16139511089E+02  0.00000000000E+00 0.  1.
<mgrwt>
<rscale>  1 0.30000000E+03</rscale>
<asrwt>0</asrwt>
<pdfrwt beam="1">  1        1 0.13432107E+00 0.30000000E+03</pdfrwt>
<pdfrwt beam="2">0</pdfrwt>
<totfact> 0.21682985E+01</totfact>
</mgrwt>
</event>
<event>
 6    1  0.1940992E-004  0.3000000E+03  0.7818608E-02  0.1093470E+00
          1   -1    0    0  502    0  0.00000000000E+00  0.00000000000E+00  0.13813966015E+03  0.13813966015E+03  0.00000000000E+00 0.  1.
         13   -1    0    0    0    0 -0.00000000000E+00 -0.00000000000E+00 -0.10000000000E+04  0.10000000000E+04  0.00000000000E+00 0.  1.
    9000005    2    1    2  501    0 -0.96962967075E+02  0.28080388447E+02 -0.93561782813E+03  0.10131176930E+04  0.37528177986E+03 0.  0.
         13    1    3    3    0    0 -0.82357000474E+02  0.23247314405E+02 -0.86378246438E+01  0.86010029466E+02  0.00000000000E+00 0.  1.
          1    1    3    3  501    0 -0.14605966601E+02  0.48330740424E+01 -0.92698000349E+03  0.92710766351E+03  0.00000000000E+00 0.  1.
         21    1    1    2  502  501  0.96962967075E+02 -0.28080388447E+02  0.73757488288E+02  0.12502196718E+03  0.00000000000E+00 0.  1.
<mgrwt>
<rscale>  1 0.30000000E+03</rscale>
<asrwt>0</asrwt>
<pdfrwt beam="1">  1        1 0.50232710E+00 0.30000000E+03</pdfrwt>
<pdfrwt beam="2">0</pdfrwt>
<totfact> 0.21956027E-01</totfact>
</mgrwt>
</event>
<event>
 6    1  0.1940992E-004  0.3000000E+03  0.7818608E-02  0.1093470E+00
          1   -1    0    0  502    0  0.00000000000E+00  0.00000000000E+00  0.47828773454E+02  0.47828773454E+02  0.00000000000E+00 0.  1.
         13   -1    0    0    0    0 -0.00000000000E+00 -0.00000000000E+00 -0.10000000000E+04  0.10000000000E+04  0.00000000000E+00 0.  1.
    9000005    2    1    2  501    0  0.94858452431E+01 -0.15102345894E+02 -0.97074806239E+03  0.10220768620E+04  0.31932937413E+03 0.  0.
         13    1    3    3    0    0  0.18567664679E+02  0.15162527158E+03 -0.45140778881E+03  0.47655427073E+03  0.00000000000E+00 0.  1.
          3    1    3    3  501    0 -0.90818194356E+01 -0.16672761747E+03 -0.51934027358E+03  0.54552259132E+03  0.00000000000E+00 0.  1.
         21    1    1    2  502  501 -0.94858452431E+01  0.15102345894E+02  0.18576835841E+02  0.25751911412E+02  0.00000000000E+00 0.  1.
<mgrwt>
<rscale>  1 0.30000000E+03</rscale>
<asrwt>0</asrwt>
<pdfrwt beam="1">  1        1 0.17392318E+00 0.30000000E+03</pdfrwt>
<pdfrwt beam="2">0</pdfrwt>
<totfact> 0.13671681E+01</totfact>
</mgrwt>
</event>
<event>
 6    1  0.1940992E-004  0.3000000E+03  0.7818608E-02  0.1093470E+00
          1   -1    0    0  502    0  0.00000000000E+00  0.00000000000E+00  0.30723392876E+02  0.30723392876E+02  0.00000000000E+00 0.  1.
         13   -1    0    0    0    0 -0.00000000000E+00 -0.00000000000E+00 -0.10000000000E+04  0.10000000000E+04  0.00000000000E+00 0.  1.
    9000005    2    1    2  501    0 -0.19539276317E+02 -0.33603047223E+01 -0.93832866736E+03  0.99396948230E+03  0.32729431525E+03 0.  0.
         13    1    3    3    0    0  0.30627052561E+01  0.16126065806E+03 -0.43648576610E+03  0.46533235865E+03  0.00000000000E+00 0.  1.
          3    1    3    3  501    0 -0.22601981573E+02 -0.16462096278E+03 -0.50184290126E+03  0.52863712365E+03  0.00000000000E+00 0.  1.
         21    1    1    2  502  501  0.19539276317E+02  0.33603047223E+01 -0.30947939766E+02  0.36753910576E+02  0.00000000000E+00 0.  1.
<mgrwt>
<rscale>  1 0.30000000E+03</rscale>
<asrwt>0</asrwt>
<pdfrwt beam="1">  1        1 0.11172166E+00 0.30000000E+03</pdfrwt>
<pdfrwt beam="2">0</pdfrwt>
<totfact> 0.29019228E+01</totfact>
</mgrwt>
</event>
<event>
 6    1  0.1940992E-004  0.3000000E+03  0.7818608E-02  0.1093470E+00
          1   -1    0    0  502    0  0.00000000000E+00  0.00000000000E+00  0.32878130698E+02  0.32878130698E+02  0.00000000000E+00 0.  1.
         13   -1    0    0    0    0 -0.00000000000E+00 -0.00000000000E+00 -0.10000000000E+04  0.10000000000E+04  0.00000000000E+00 0.  1.
    9000005    2    1    2  501    0  0.98877994483E+01 -0.12410003968E+01 -0.96103272830E+03  0.10211996763E+04  0.34520365767E+03 0.  0.
         13    1    3    3    0    0  0.11366810854E+03 -0.70496704398E+02 -0.15144328483E+03  0.20205269795E+03  0.00000000000E+00 0.  1.
          1    1    3    3  501    0 -0.10378030909E+03  0.69255704002E+02 -0.80958944347E+03  0.81914697831E+03  0.00000000000E+00 0.  1.
         21    1    1    2  502  501 -0.98877994483E+01  0.12410003968E+01 -0.60891410014E+01  0.11678454438E+02  0.00000000000E+00 0. -1.
<mgrwt>
<rscale>  1 0.30000000E+03</rscale>
<asrwt>0</asrwt>
<pdfrwt beam="1">  1        1 0.11955709E+00 0.30000000E+03</pdfrwt>
<pdfrwt beam="2">0</pdfrwt>
<totfact> 0.26146505E+01</totfact>
</mgrwt>
</event>
<event>
 6    1  0.1940992E-004  0.3000000E+03  0.7818608E-02  0.1093470E+00
          1   -1    0    0  502    0  0.00000000000E+00  0.00000000000E+00  0.28402094232E+02  0.28402094232E+02  0.00000000000E+00 0.  1.
         13   -1    0    0    0    0 -0.00000000000E+00 -0.00000000000E+00 -0.10000000000E+04  0.10000000000E+04  0.00000000000E+00 0.  1.
    9000005    2    1    2  501    0 -0.10165810552E+02 -0.14344607906E+01 -0.96812568293E+03  0.10175643032E+04  0.31315231424E+03 0.  0.
         13    1    3    3    0    0  0.96043775345E+01 -0.14404646781E+03 -0.28554992026E+03  0.31996935152E+03  0.00000000000E+00 0.  1.
          1    1    3    3  501    0 -0.19770188087E+02  0.14261200702E+03 -0.68257576267E+03  0.69759495172E+03  0.00000000000E+00 0.  1.
         21    1    1    2  502  501  0.10165810552E+02  0.14344607906E+01 -0.34722228380E+01  0.10837790982E+02  0.00000000000E+00 0. -1.
<mgrwt>
<rscale>  1 0.30000000E+03</rscale>
<asrwt>0</asrwt>
<pdfrwt beam="1">  1        1 0.10328056E+00 0.30000000E+03</pdfrwt>
<pdfrwt beam="2">0</pdfrwt>
<totfact> 0.32641302E+01</totfact>
</mgrwt>
</event>
<event>
 6    1  0.1940992E-004  0.3000000E+03  0.7818608E-02  0.1093470E+00
          1   -1    0    0  502    0  0.00000000000E+00  0.00000000000E+00  0.30774096084E+02  0.30774096084E+02  0.00000000000E+00 0.  1.
         13   -1    0    0    0    0 -0.00000000000E+00 -0.00000000000E+00 -0.10000000000E+04  0.10000000000E+04  0.00000000000E+00 0.  1.
    9000005    2    1    2  501    0 -0.62516922514E+01 -0.66954145923E+01 -0.94708461380E+03  0.10068126904E+04  0.34149467887E+03 0.  0.
         13    1    3    3    0    0 -0.66772961888E+02 -0.79788513824E+02 -0.89001812166E+03  0.89607873106E+03  0.00000000000E+00 0.  1.
          3    1    3    3  501    0  0.60521269637E+02  0.73093099232E+02 -0.57066492140E+02  0.11073395938E+03  0.00000000000E+00 0.  1.
         21    1    1    2  502  501  0.62516922514E+01  0.66954145923E+01 -0.22141290115E+02  0.23961405646E+02  0.00000000000E+00 0. -1.
<mgrwt>
<rscale>  1 0.30000000E+03</rscale>
<asrwt>0</asrwt>
<pdfrwt beam="1">  1        1 0.11190604E+00 0.30000000E+03</pdfrwt>
<pdfrwt beam="2">0</pdfrwt>
<totfact> 0.28946638E+01</totfact>
</mgrwt>
</event>
<event>
 6    1  0.1940992E-004  0.3000000E+03  0.7818608E-02  0.1093470E+00
          1   -1    0    0  502    0  0.00000000000E+00  0.00000000000E+00  0.40505558174E+02  0.40505558174E+02  0.00000000000E+00 0.  1.
         13   -1    0    0    0    0 -0.00000000000E+00 -0.00000000000E+00 -0.10000000000E+04  0.10000000000E+04  0.00000000000E+00 0.  1.
    9000005    2    1    2  501    0 -0.10318692688E+02  0.68124727278E+01 -0.97186124783E+03  0.10230177597E+04  0.31921492214E+03 0.  0.
         13    1    3    3    0    0 -0.14908909145E+03 -0.15013696003E+01 -0.27892233017E+03  0.31627120888E+03  0.00000000000E+00 0.  1.
          1    1    3    3  501    0  0.13877039876E+03  0.83138423281E+01 -0.69293891766E+03  0.70674655086E+03  0.00000000000E+00 0.  1.
         21    1    1    2  502  501  0.10318692688E+02 -0.68124727278E+01  0.12366806000E+02  0.17487798435E+02  0.00000000000E+00 0.  1.
<mgrwt>
<rscale>  1 0.30000000E+03</rscale>
<asrwt>0</asrwt>
<pdfrwt beam="1">  1        1 0.14729325E+00 0.30000000E+03</pdfrwt>
<pdfrwt beam="2">0</pdfrwt>
<totfact> 0.18545687E+01</totfact>
</mgrwt>
</event>
<event>
 6    1  0.1940992E-004  0.3000000E+03  0.7818608E-02  0.1093470E+00
          1   -1    0    0  502    0  0.00000000000E+00  0.00000000000E+00  0.44858635728E+02  0.44858635728E+02  0.00000000000E+00 0.  1.
         13   -1    0    0    0    0 -0.00000000000E+00 -0.00000000000E+00 -0.10000000000E+04  0.10000000000E+04  0.00000000000E+00 0.  1.
    9000005    2    1    2  501    0  0.22757909171E+02 -0.23884251457E+01 -0.96068511193E+03  0.10213137819E+04  0.34589352374E+03 0.  0.
         13    1    3    3    0    0 -0.13441828570E+03  0.68564132095E+02 -0.26876098820E+03  0.30822359501E+03  0.00000000000E+00 0.  1.
          3    1    3    3  501    0  0.15717619487E+03 -0.70952557241E+02 -0.69192412373E+03  0.71309018687E+03  0.00000000000E+00 0.  1.
         21    1    1    2  502  501 -0.22757909171E+02  0.23884251457E+01  0.55437476611E+01  0.23544853846E+02  0.00000000000E+00 0.  1.
<mgrwt>
<rscale>  1 0.30000000E+03</rscale>
<asrwt>0</asrwt>
<pdfrwt beam="1">  1        1 0.16312266E+00 0.30000000E+03</pdfrwt>
<pdfrwt beam="2">0</pdfrwt>
<totfact> 0.15443083E+01</totfact>
</mgrwt>
</event>
<event>
 6    1  0.1940992E-004  0.3000000E+03  0.7818608E-02  0.1093470E+00
          1   -1    0    0  502    0  0.00000000000E+00  0.00000000000E+00  0.26149342966E+02  0.26149342966E+02  0.00000000000E+00 0.  1.
         13   -1    0    0    0    0 -0.00000000000E+00 -0.00000000000E+00 -0.10000000000E+04  0.10000000000E+04  0.00000000000E+00 0.  1.
    9000005    2    1    2  501    0 -0.55306679321E+01 -0.85691407109E+01 -0.95207961503E+03  0.10021077804E+04  0.31250662671E+03 0.  0.
         13    1    3    3    0    0  0.13163107738E+03 -0.14199002129E+02 -0.72318281011E+03  0.73520182877E+03  0.00000000000E+00 0.  1.
          3    1    3    3  501    0 -0.13716174531E+03  0.56298614178E+01 -0.22889680492E+03  0.26690595164E+03  0.00000000000E+00 0.  1.
         21    1    1    2  502  501  0.55306679321E+01  0.85691407109E+01 -0.21771042002E+02  0.24041562556E+02  0.00000000000E+00 0.  1.
<mgrwt>
<rscale>  1 0.30000000E+03</rscale>
<asrwt>0</asrwt>
<pdfrwt beam="1">  1        1 0.95088720E-01 0.30000000E+03</pdfrwt>
<pdfrwt beam="2">0</pdfrwt>
<totfact> 0.36821568E+01</totfact>
</mgrwt>
</event>
<event>
 6    1  0.1940992E-004  0.3000000E+03  0.7818608E-02  0.1093470E+00
          1   -1    0    0  502    0  0.00000000000E+00  0.00000000000E+00  0.30305584194E+02  0.30305584194E+02  0.00000000000E+00 0.  1.
         13   -1    0    0    0    0 -0.00000000000E+00 -0.00000000000E+00 -0.10000000000E+04  0.10000000000E+04  0.00000000000E+00 0.  1.
    9000005    2    1    2  501    0 -0.70394374970E+01  0.13625705302E+02 -0.93457131686E+03  0.99198006260E+03  0.33221331218E+03 0.  0.
         13    1    3    3    0    0 -0.12440617047E+02  0.17277684407E+03 -0.47476000792E+03  0.50537478362E+03  0.00000000000E+00 0.  1.
          3    1    3    3  501    0  0.54011795496E+01 -0.15915113876E+03 -0.45981130894E+03  0.48660527898E+03  0.00000000000E+00 0.  1.
         21    1    1    2  502  501  0.70394374970E+01 -0.13625705302E+02 -0.35123098950E+02  0.38325521590E+02  0.00000000000E+00 0. -1.
<mgrwt>
<rscale>  1 0.30000000E+03</rscale>
<asrwt>0</asrwt>
<pdfrwt beam="1">  1        1 0.11020236E+00 0.30000000E+03</pdfrwt>
<pdfrwt beam="2">0</pdfrwt>
<totfact> 0.29627294E+01</totfact>
</mgrwt>
</event>
<event>
 6    1  0.1940992E-004  0.3000000E+03  0.7818608E-02  0.1093470E+00
          1   -1    0    0  502    0  0.00000000000E+00  0.00000000000E+00  0.65316679022E+02  0.65316679022E+02  0.00000000000E+00 0.  1.
         13   -1    0    0    0    0 -0.00000000000E+00 -0.00000000000E+00 -0.10000000000E+04  0.10000000000E+04  0.00000000000E+00 0.  1.
    9000005    2    1    2  501    0  0.22962380644E+01  0.18355619783E+02 -0.97096854007E+03  0.10245880821E+04  0.32658632946E+03 0.  0.
         13    1    3    3    0    0  0.16252538600E+03 -0.14344283402E+02 -0.51090604864E+03  0.53632569405E+03  0.00000000000E+00 0.  1.
          3    1    3    3  501    0 -0.16022914794E+03  0.32699903185E+02 -0.46006249143E+03  0.48826238800E+03  0.00000000000E+00 0.  1.
         21    1    1    2  502  501 -0.22962380644E+01 -0.18355619783E+02  0.36285219090E+02  0.40728596971E+02  0.00000000000E+00 0.  1.
<mgrwt>
<rscale>  1 0.30000000E+03</rscale>
<asrwt>0</asrwt>
<pdfrwt beam="1">  1        1 0.23751570E+00 0.30000000E+03</pdfrwt>
<pdfrwt beam="2">0</pdfrwt>
<totfact> 0.68244484E+00</totfact>
</mgrwt>
</event>
<event>
 6    1  0.2073385E-004  0.3000000E+03  0.7818608E-02  0.1093470E+00
          1   -1    0    0  502    0  0.00000000000E+00  0.00000000000E+00  0.44710690743E+02  0.44710690743E+02  0.00000000000E+00 0.  1.
         13   -1    0    0    0    0 -0.00000000000E+00 -0.00000000000E+00 -0.10000000000E+04  0.10000000000E+04  0.00000000000E+00 0.  1.
    9000005    2    1    2  501    0  0.75869602215E+00  0.12262810549E+02 -0.92847206612E+03  0.10152129506E+04  0.41042174092E+03 0.  0.
         13    1    3    3    0    0 -0.17487804457E+03  0.20043690318E+02 -0.72613844139E+03  0.74716873332E+03  0.00000000000E+00 0.  1.
          3    1    3    3  501    0  0.17563674059E+03 -0.77808797693E+01 -0.20233362473E+03  0.26804421731E+03  0.00000000000E+00 0.  1.
         21    1    1    2  502  501 -0.75869602215E+00 -0.12262810549E+02 -0.26817243137E+02  0.29497740112E+02  0.00000000000E+00 0.  1.
<mgrwt>
<rscale>  1 0.30000000E+03</rscale>
<asrwt>0</asrwt>
<pdfrwt beam="1">  1        1 0.16258467E+00 0.30000000E+03</pdfrwt>
<pdfrwt beam="2">0</pdfrwt>
<totfact> 0.15537920E+01</totfact>
</mgrwt>
</event>
<event>
 6    1  0.1940992E-004  0.3000000E+03  0.7818608E-02  0.1093470E+00
          1   -1    0    0  502    0  0.00000000000E+00  0.00000000000E+00  0.38575950429E+02  0.38575950429E+02  0.00000000000E+00 0.  1.
         13   -1    0    0    0    0 -0.00000000000E+00 -0.00000000000E+00 -0.10000000000E+04  0.10000000000E+04  0.00000000000E+00 0.  1.
    9000005    2    1    2  501    0 -0.11224903508E+02  0.14369892287E+02 -0.96525892209E+03  0.10199426869E+04  0.32897690740E+03 0.  0.
         13    1    3    3    0    0  0.86403610570E+02  0.57910989489E+02 -0.88150970626E+02  0.13634463776E+03  0.00000000000E+00 0.  1.
          1    1    3    3  501    0 -0.97628514078E+02 -0.43541097202E+02 -0.87710795146E+03  0.88359804913E+03  0.00000000000E+00 0.  1.
         21    1    1    2  502  501  0.11224903508E+02 -0.14369892287E+02  0.38348725145E+01  0.18633263544E+02  0.00000000000E+00 0. -1.
<mgrwt>
<rscale>  1 0.30000000E+03</rscale>
<asrwt>0</asrwt>
<pdfrwt beam="1">  1        1 0.14027648E+00 0.30000000E+03</pdfrwt>
<pdfrwt beam="2">0</pdfrwt>
<totfact> 0.20164836E+01</totfact>
</mgrwt>
</event>
<event>
 6    1  0.1940992E-004  0.3000000E+03  0.7818608E-02  0.1093470E+00
          1   -1    0    0  502    0  0.00000000000E+00  0.00000000000E+00  0.34059315206E+02  0.34059315206E+02  0.00000000000E+00 0.  1.
         13   -1    0    0    0    0 -0.00000000000E+00 -0.00000000000E+00 -0.10000000000E+04  0.10000000000E+04  0.00000000000E+00 0.  1.
    9000005    2    1    2  501    0  0.93556055901E+01  0.43463295105E+01 -0.97001261496E+03  0.10229688440E+04  0.32470658246E+03 0.  0.
         13    1    3    3    0    0  0.97626742830E+02 -0.12468830218E+02 -0.75730632387E+02  0.12418365965E+03  0.00000000000E+00 0.  1.
          3    1    3    3  501    0 -0.88271137240E+02  0.16815159728E+02 -0.89428198257E+03  0.89878518436E+03  0.00000000000E+00 0.  1.
         21    1    1    2  502  501 -0.93556055901E+01 -0.43463295105E+01  0.40719301643E+01  0.11090471200E+02  0.00000000000E+00 0. -1.
<mgrwt>
<rscale>  1 0.30000000E+03</rscale>
<asrwt>0</asrwt>
<pdfrwt beam="1">  1        1 0.12385232E+00 0.30000000E+03</pdfrwt>
<pdfrwt beam="2">0</pdfrwt>
<totfact> 0.24734348E+01</totfact>
</mgrwt>
</event>
<event>
 6    1  0.1940992E-004  0.3000000E+03  0.7818608E-02  0.1093470E+00
          1   -1    0    0  502    0  0.00000000000E+00  0.00000000000E+00  0.41008715406E+02  0.41008715406E+02  0.00000000000E+00 0.  1.
         13   -1    0    0    0    0 -0.00000000000E+00 -0.00000000000E+00 -0.10000000000E+04  0.10000000000E+04  0.00000000000E+00 0.  1.
    9000005    2    1    2  501    0  0.73881080705E+01 -0.44059624982E+02 -0.93353757982E+03  0.98959154142E+03  0.32527399406E+03 0.  0.
         13    1    3    3    0    0 -0.85615906277E+02  0.40622464977E+02 -0.72242471891E+02  0.11916057575E+03  0.00000000000E+00 0.  1.
          3    1    3    3  501    0  0.93004014348E+02 -0.84682089959E+02 -0.86129510793E+03  0.87043096567E+03  0.00000000000E+00 0.  1.
         21    1    1    2  502  501 -0.73881080705E+01  0.44059624982E+02 -0.25453704772E+02  0.51417173989E+02  0.00000000000E+00 0. -1.
<mgrwt>
<rscale>  1 0.30000000E+03</rscale>
<asrwt>0</asrwt>
<pdfrwt beam="1">  1        1 0.14912292E+00 0.30000000E+03</pdfrwt>
<pdfrwt beam="2">0</pdfrwt>
<totfact> 0.18150619E+01</totfact>
</mgrwt>
</event>
<event>
 6    1  0.1940992E-004  0.3000000E+03  0.7818608E-02  0.1093470E+00
          1   -1    0    0  502    0  0.00000000000E+00  0.00000000000E+00  0.36607459317E+02  0.36607459317E+02  0.00000000000E+00 0.  1.
         13   -1    0    0    0    0 -0.00000000000E+00 -0.00000000000E+00 -0.10000000000E+04  0.10000000000E+04  0.00000000000E+00 0.  1.
    9000005    2    1    2  501    0  0.44132686776E+02 -0.29730724112E+02 -0.82753007610E+03  0.89069577617E+03  0.32511740776E+03 0.  0.
         13    1    3    3    0    0 -0.55926595104E+02 -0.15458056863E+03 -0.49693129708E+03  0.52341537068E+03  0.00000000000E+00 0.  1.
          1    1    3    3  501    0  0.10005928188E+03  0.12484984452E+03 -0.33059877902E+03  0.36728040549E+03  0.00000000000E+00 0.  1.
         21    1    1    2  502  501 -0.44132686776E+02  0.29730724112E+02 -0.13586246458E+03  0.14591168315E+03  0.00000000000E+00 0.  1.
<mgrwt>
<rscale>  1 0.30000000E+03</rscale>
<asrwt>0</asrwt>
<pdfrwt beam="1">  1        1 0.13311831E+00 0.30000000E+03</pdfrwt>
<pdfrwt beam="2">0</pdfrwt>
<totfact> 0.22007667E+01</totfact>
</mgrwt>
</event>
<event>
 6    1  0.1940992E-004  0.3000000E+03  0.7818608E-02  0.1093470E+00
          1   -1    0    0  502    0  0.00000000000E+00  0.00000000000E+00  0.36012456999E+02  0.36012456999E+02  0.00000000000E+00 0.  1.
         13   -1    0    0    0    0 -0.00000000000E+00 -0.00000000000E+00 -0.10000000000E+04  0.10000000000E+04  0.00000000000E+00 0.  1.
    9000005    2    1    2  501    0 -0.75236879900E+01 -0.17205837475E+02 -0.96577180782E+03  0.10171489916E+04  0.31862868624E+03 0.  0.
         13    1    3    3    0    0  0.15136524451E+03 -0.19267010588E+02 -0.36259938766E+03  0.39339670928E+03  0.00000000000E+00 0.  1.
          1    1    3    3  501    0 -0.15888893250E+03  0.20611731125E+01 -0.60317242017E+03  0.62375228236E+03  0.00000000000E+00 0.  1.
         21    1    1    2  502  501  0.75236879900E+01  0.17205837475E+02  0.17842648224E+01  0.18863465354E+02  0.00000000000E+00 0. -1.
<mgrwt>
<rscale>  1 0.30000000E+03</rscale>
<asrwt>0</asrwt>
<pdfrwt beam="1">  1        1 0.13095467E+00 0.30000000E+03</pdfrwt>
<pdfrwt beam="2">0</pdfrwt>
<totfact> 0.22608054E+01</totfact>
</mgrwt>
</event>
<event>
 6    1  0.1940992E-004  0.3000000E+03  0.7818608E-02  0.1093470E+00
          1   -1    0    0  502    0  0.00000000000E+00  0.00000000000E+00  0.30332325914E+02  0.30332325914E+02  0.00000000000E+00 0.  1.
         13   -1    0    0    0    0 -0.00000000000E+00 -0.00000000000E+00 -0.10000000000E+04  0.10000000000E+04  0.00000000000E+00 0.  1.
    9000005    2    1    2  501    0 -0.16250454048E+02  0.61439760004E+01 -0.96650011540E+03  0.10126727923E+04  0.30179775610E+03 0.  0.
         13    1    3    3    0    0  0.10073968825E+03 -0.98257941664E+02 -0.54745135913E+03  0.56524870499E+03  0.00000000000E+00 0.  1.
          3    1    3    3  501    0 -0.11699014230E+03  0.10440191766E+03 -0.41904875627E+03  0.44742408735E+03  0.00000000000E+00 0.  1.
         21    1    1    2  502  501  0.16250454048E+02 -0.61439760004E+01 -0.31675586869E+01  0.17659533570E+02  0.00000000000E+00 0.  1.
<mgrwt>
<rscale>  1 0.30000000E+03</rscale>
<asrwt>0</asrwt>
<pdfrwt beam="1">  1        1 0.11029960E+00 0.30000000E+03</pdfrwt>
<pdfrwt beam="2">0</pdfrwt>
<totfact> 0.29587838E+01</totfact>
</mgrwt>
</event>
<event>
 6    1  0.1940992E-004  0.3000000E+03  0.7818608E-02  0.1093470E+00
          1   -1    0    0  502    0  0.00000000000E+00  0.00000000000E+00  0.35389692581E+02  0.35389692581E+02  0.00000000000E+00 0.  1.
         13   -1    0    0    0    0 -0.00000000000E+00 -0.00000000000E+00 -0.10000000000E+04  0.10000000000E+04  0.00000000000E+00 0.  1.
    9000005    2    1    2  501    0  0.81455297563E+00  0.99701290444E+01 -0.96085804058E+03  0.10247057572E+04  0.35591241568E+03 0.  0.
         13    1    3    3    0    0 -0.12991633635E+03  0.10973523474E+03 -0.66303687664E+03  0.68449833891E+03  0.00000000000E+00 0.  1.
          1    1    3    3  501    0  0.13073088933E+03 -0.99765105692E+02 -0.29782116394E+03  0.34020741824E+03  0.00000000000E+00 0.  1.
         21    1    1    2  502  501 -0.81455297563E+00 -0.99701290444E+01 -0.37522668409E+01  0.10683935425E+02  0.00000000000E+00 0. -1.
<mgrwt>
<rscale>  1 0.30000000E+03</rscale>
<asrwt>0</asrwt>
<pdfrwt beam="1">  1        1 0.12869006E+00 0.30000000E+03</pdfrwt>
<pdfrwt beam="2">0</pdfrwt>
<totfact> 0.23259571E+01</totfact>
</mgrwt>
</event>
<event>
 6    1  0.1940992E-004  0.3000000E+03  0.7818608E-02  0.1093470E+00
          3   -1    0    0  502    0  0.00000000000E+00  0.00000000000E+00  0.29781856071E+02  0.29781856071E+02  0.00000000000E+00 0.  1.
         13   -1    0    0    0    0 -0.00000000000E+00 -0.00000000000E+00 -0.10000000000E+04  0.10000000000E+04  0.00000000000E+00 0.  1.
    9000005    2    1    2  501    0  0.81532083378E+01  0.10133743765E+02 -0.95575702346E+03  0.10103321369E+04  0.32730776263E+03 0.  0.
         13    1    3    3    0    0 -0.90486034416E+02 -0.52106702484E+02 -0.83839049638E+03  0.84486771467E+03  0.00000000000E+00 0.  1.
          3    1    3    3  501    0  0.98639242754E+02  0.62240446249E+02 -0.11736652708E+03  0.16546442228E+03  0.00000000000E+00 0.  1.
         21    1    1    2  502  501 -0.81532083378E+01 -0.10133743765E+02 -0.14461120466E+02  0.19449719125E+02  0.00000000000E+00 0.  1.
<mgrwt>
<rscale>  1 0.30000000E+03</rscale>
<asrwt>0</asrwt>
<pdfrwt beam="1">  1        3 0.10829789E+00 0.30000000E+03</pdfrwt>
<pdfrwt beam="2">0</pdfrwt>
<totfact> 0.31512432E+00</totfact>
</mgrwt>
</event>
<event>
 6    1  0.1940992E-004  0.3000000E+03  0.7818608E-02  0.1093470E+00
          1   -1    0    0  502    0  0.00000000000E+00  0.00000000000E+00  0.42993794916E+02  0.42993794916E+02  0.00000000000E+00 0.  1.
         13   -1    0    0    0    0 -0.00000000000E+00 -0.00000000000E+00 -0.10000000000E+04  0.10000000000E+04  0.00000000000E+00 0.  1.
    9000005    2    1    2  501    0 -0.11858972892E+01  0.26506641432E+02 -0.95992285129E+03  0.10163008142E+04  0.33273331092E+03 0.  0.
         13    1    3    3    0    0 -0.12183334383E+00  0.54499964644E+02  0.14505053041E+01  0.54519399806E+02  0.00000000000E+00 0.  1.
          1    1    3    3  501    0 -0.10640639454E+01 -0.27993323211E+02 -0.96137335659E+03  0.96178141443E+03  0.00000000000E+00 0.  1.
         21    1    1    2  502  501  0.11858972892E+01 -0.26506641432E+02  0.29166462063E+01  0.26692980678E+02  0.00000000000E+00 0.  1.
<mgrwt>
<rscale>  1 0.30000000E+03</rscale>
<asrwt>0</asrwt>
<pdfrwt beam="1">  1        1 0.15634140E+00 0.30000000E+03</pdfrwt>
<pdfrwt beam="2">0</pdfrwt>
<totfact> 0.16689534E+01</totfact>
</mgrwt>
</event>
<event>
 6    1  0.1940992E-004  0.3000000E+03  0.7818608E-02  0.1093470E+00
          1   -1    0    0  502    0  0.00000000000E+00  0.00000000000E+00  0.27555785932E+02  0.27555785932E+02  0.00000000000E+00 0.  1.
         13   -1    0    0    0    0 -0.00000000000E+00 -0.00000000000E+00 -0.10000000000E+04  0.10000000000E+04  0.00000000000E+00 0.  1.
    9000005    2    1    2  501    0  0.79088215199E+01 -0.10845375267E+02 -0.95038061399E+03  0.10017299448E+04  0.31632167047E+03 0.  0.
         13    1    3    3    0    0 -0.13392503181E+03  0.82132388057E+01 -0.70510367957E+03  0.71775662336E+03  0.00000000000E+00 0.  1.
          3    1    3    3  501    0  0.14183385333E+03 -0.19058614073E+02 -0.24527693441E+03  0.28397332142E+03  0.00000000000E+00 0.  1.
         21    1    1    2  502  501 -0.79088215199E+01  0.10845375267E+02 -0.22063600082E+02  0.25825841150E+02  0.00000000000E+00 0. -1.
<mgrwt>
<rscale>  1 0.30000000E+03</rscale>
<asrwt>0</asrwt>
<pdfrwt beam="1">  1        1 0.10020307E+00 0.30000000E+03</pdfrwt>
<pdfrwt beam="2">0</pdfrwt>
<totfact> 0.34125548E+01</totfact>
</mgrwt>
</event>
<event>
 6    1  0.1940992E-004  0.3000000E+03  0.7818608E-02  0.1093470E+00
          1   -1    0    0  502    0  0.00000000000E+00  0.00000000000E+00  0.31747077490E+02  0.31747077490E+02  0.00000000000E+00 0.  1.
         13   -1    0    0    0    0 -0.00000000000E+00 -0.00000000000E+00 -0.10000000000E+04  0.10000000000E+04  0.00000000000E+00 0.  1.
    9000005    2    1    2  501    0  0.22138705458E+01  0.13680765687E+02 -0.96164551440E+03  0.10163938233E+04  0.32878905712E+03 0.  0.
         13    1    3    3    0    0 -0.11095124405E+02 -0.51441175179E+02 -0.94683433300E+03  0.94829560288E+03  0.00000000000E+00 0.  1.
          1    1    3    3  501    0  0.13308994951E+02  0.65121940866E+02 -0.14811181402E+02  0.68098220412E+02  0.00000000000E+00 0.  1.
         21    1    1    2  502  501 -0.22138705458E+01 -0.13680765687E+02 -0.66074081067E+01  0.15353254198E+02  0.00000000000E+00 0. -1.
<mgrwt>
<rscale>  1 0.30000000E+03</rscale>
<asrwt>0</asrwt>
<pdfrwt beam="1">  1        1 0.11544416E+00 0.30000000E+03</pdfrwt>
<pdfrwt beam="2">0</pdfrwt>
<totfact> 0.27602270E+01</totfact>
</mgrwt>
</event>
<event>
 6    1  0.1940992E-004  0.3000000E+03  0.7818608E-02  0.1093470E+00
          1   -1    0    0  502    0  0.00000000000E+00  0.00000000000E+00  0.40613715141E+02  0.40613715141E+02  0.00000000000E+00 0.  1.
         13   -1    0    0    0    0 -0.00000000000E+00 -0.00000000000E+00 -0.10000000000E+04  0.10000000000E+04  0.00000000000E+00 0.  1.
    9000005    2    1    2  501    0  0.15620865341E+02 -0.59428207896E+01 -0.96812569517E+03  0.10217535496E+04  0.32624166786E+03 0.  0.
         13    1    3    3    0    0 -0.11238480333E+03 -0.11317481611E+03 -0.45563228012E+03  0.48274181268E+03  0.00000000000E+00 0.  1.
          1    1    3    3  501    0  0.12800566867E+03  0.10723199532E+03 -0.51249341505E+03  0.53901173689E+03  0.00000000000E+00 0.  1.
         21    1    1    2  502  501 -0.15620865341E+02  0.59428207896E+01  0.87394103102E+01  0.18860165575E+02  0.00000000000E+00 0.  1.
<mgrwt>
<rscale>  1 0.30000000E+03</rscale>
<asrwt>0</asrwt>
<pdfrwt beam="1">  1        1 0.14768655E+00 0.30000000E+03</pdfrwt>
<pdfrwt beam="2">0</pdfrwt>
<totfact> 0.18459864E+01</totfact>
</mgrwt>
</event>
<event>
 6    1  0.1940992E-004  0.3000000E+03  0.7818608E-02  0.1093470E+00
          1   -1    0    0  502    0  0.00000000000E+00  0.00000000000E+00  0.58438105561E+02  0.58438105561E+02  0.00000000000E+00 0.  1.
         13   -1    0    0    0    0 -0.00000000000E+00 -0.00000000000E+00 -0.10000000000E+04  0.10000000000E+04  0.00000000000E+00 0.  1.
    9000005    2    1    2  501    0  0.36505612931E+02  0.37530795110E+02 -0.92863424285E+03  0.10045090361E+04  0.37938848989E+03 0.  0.
         13    1    3    3    0    0 -0.44127118959E+02  0.16462827742E+03 -0.21089672447E+03  0.27115881093E+03  0.00000000000E+00 0.  1.
          3    1    3    3  501    0  0.80632731890E+02 -0.12709748231E+03 -0.71773751838E+03  0.73335022517E+03  0.00000000000E+00 0.  1.
         21    1    1    2  502  501 -0.36505612931E+02 -0.37530795110E+02 -0.12927651587E+02  0.53929069458E+02  0.00000000000E+00 0.  1.
<mgrwt>
<rscale>  1 0.30000000E+03</rscale>
<asrwt>0</asrwt>
<pdfrwt beam="1">  1        1 0.21250265E+00 0.30000000E+03</pdfrwt>
<pdfrwt beam="2">0</pdfrwt>
<totfact> 0.89394138E+00</totfact>
</mgrwt>
</event>
<event>
 6    1  0.1940992E-004  0.3000000E+03  0.7818608E-02  0.1093470E+00
          1   -1    0    0  502    0  0.00000000000E+00  0.00000000000E+00  0.32956777368E+02  0.32956777368E+02  0.00000000000E+00 0.  1.
         13   -1    0    0    0    0 -0.00000000000E+00 -0.00000000000E+00 -0.10000000000E+04  0.10000000000E+04  0.00000000000E+00 0.  1.
    9000005    2    1    2  501    0 -0.30859244754E+01 -0.96713302314E+01 -0.96569165138E+03  0.10227154736E+04  0.33657616791E+03 0.  0.
         13    1    3    3    0    0 -0.32968747153E+02  0.10547050837E+03 -0.10045290822E+03  0.14933771525E+03  0.00000000000E+00 0.  1.
          3    1    3    3  501    0  0.29882822677E+02 -0.11514183861E+03 -0.86523874317E+03  0.87337775834E+03  0.00000000000E+00 0.  1.
         21    1    1    2  502  501  0.30859244754E+01  0.96713302314E+01 -0.13515712477E+01  0.10241303782E+02  0.00000000000E+00 0.  1.
<mgrwt>
<rscale>  1 0.30000000E+03</rscale>
<asrwt>0</asrwt>
<pdfrwt beam="1">  1        1 0.11984308E+00 0.30000000E+03</pdfrwt>
<pdfrwt beam="2">0</pdfrwt>
<totfact> 0.26049203E+01</totfact>
</mgrwt>
</event>
<event>
 6    1  0.1940992E-004  0.3000000E+03  0.7818608E-02  0.1093470E+00
          1   -1    0    0  502    0  0.00000000000E+00  0.00000000000E+00  0.35376354537E+02  0.35376354537E+02  0.00000000000E+00 0.  1.
         13   -1    0    0    0    0 -0.00000000000E+00 -0.00000000000E+00 -0.10000000000E+04  0.10000000000E+04  0.00000000000E+00 0.  1.
    9000005    2    1    2  501    0 -0.35653762208E+02 -0.32647203743E+01 -0.93251981610E+03  0.98728784220E+03  0.32227663084E+03 0.  0.
         13    1    3    3    0    0  0.13065078666E+03  0.22079651785E+02 -0.60211949973E+03  0.61652658582E+03  0.00000000000E+00 0.  1.
          1    1    3    3  501    0 -0.16630454886E+03 -0.25344372160E+02 -0.33040031637E+03  0.37076125638E+03  0.00000000000E+00 0.  1.
         21    1    1    2  502  501  0.35653762208E+02  0.32647203743E+01 -0.32103829366E+02  0.48088512335E+02  0.00000000000E+00 0.  1.
<mgrwt>
<rscale>  1 0.30000000E+03</rscale>
<asrwt>0</asrwt>
<pdfrwt beam="1">  1        1 0.12864156E+00 0.30000000E+03</pdfrwt>
<pdfrwt beam="2">0</pdfrwt>
<totfact> 0.23273790E+01</totfact>
</mgrwt>
</event>
<event>
 6    1  0.1940992E-004  0.3000000E+03  0.7818608E-02  0.1093470E+00
          1   -1    0    0  502    0  0.00000000000E+00  0.00000000000E+00  0.28815244220E+02  0.28815244220E+02  0.00000000000E+00 0.  1.
         13   -1    0    0    0    0 -0.00000000000E+00 -0.00000000000E+00 -0.10000000000E+04  0.10000000000E+04  0.00000000000E+00 0.  1.
    9000005    2    1    2  501    0  0.64909455404E+01  0.62033207573E+01 -0.95336587709E+03  0.10088621492E+04  0.32987228886E+03 0.  0.
         13    1    3    3    0    0  0.96815811928E+02  0.29029022353E+02 -0.89108138840E+03  0.89679542056E+03  0.00000000000E+00 0.  1.
          1    1    3    3  501    0 -0.90324866388E+02 -0.22825701596E+02 -0.62284488690E+02  0.11206672866E+03  0.00000000000E+00 0.  1.
         21    1    1    2  502  501 -0.64909455404E+01 -0.62033207573E+01 -0.17818878688E+02  0.19953095001E+02  0.00000000000E+00 0.  1.
<mgrwt>
<rscale>  1 0.30000000E+03</rscale>
<asrwt>0</asrwt>
<pdfrwt beam="1">  1        1 0.10478293E+00 0.30000000E+03</pdfrwt>
<pdfrwt beam="2">0</pdfrwt>
<totfact> 0.31950748E+01</totfact>
</mgrwt>
</event>
<event>
 6    1  0.1940992E-004  0.3000000E+03  0.7818608E-02  0.1093470E+00
          1   -1    0    0  502    0  0.00000000000E+00  0.00000000000E+00  0.50262672444E+02  0.50262672444E+02  0.00000000000E+00 0.  1.
         13   -1    0    0    0    0 -0.00000000000E+00 -0.00000000000E+00 -0.10000000000E+04  0.10000000000E+04  0.00000000000E+00 0.  1.
    9000005    2    1    2  501    0 -0.11903667515E+02 -0.93792291108E+02 -0.83917283136E+03  0.90478690473E+03  0.32479164231E+03 0.  0.
         13    1    3    3    0    0 -0.86366522829E+02 -0.15616326897E+03 -0.24711791278E+03  0.30481700356E+03  0.00000000000E+00 0.  1.
          1    1    3    3  501    0  0.74462855314E+02  0.62370977867E+02 -0.59205491858E+03  0.59996990118E+03  0.00000000000E+00 0.  1.
         21    1    1    2  502  501  0.11903667515E+02  0.93792291108E+02 -0.11056449620E+03  0.14547576771E+03  0.00000000000E+00 0.  1.
<mgrwt>
<rscale>  1 0.30000000E+03</rscale>
<asrwt>0</asrwt>
<pdfrwt beam="1">  1        1 0.18277374E+00 0.30000000E+03</pdfrwt>
<pdfrwt beam="2">0</pdfrwt>
<totfact> 0.12386424E+01</totfact>
</mgrwt>
</event>
<event>
 6    1  0.1940992E-004  0.3000000E+03  0.7818608E-02  0.1093470E+00
          1   -1    0    0  502    0  0.00000000000E+00  0.00000000000E+00  0.29785429739E+02  0.29785429739E+02  0.00000000000E+00 0.  1.
         13   -1    0    0    0    0 -0.00000000000E+00 -0.00000000000E+00 -0.10000000000E+04  0.10000000000E+04  0.00000000000E+00 0.  1.
    9000005    2    1    2  501    0 -0.50173043588E+01 -0.83924056965E+01 -0.96007923014E+03  0.10157024281E+04  0.33136639607E+03 0.  0.
         13    1    3    3    0    0  0.66873417707E+02 -0.14842178336E+03 -0.61909744059E+03  0.64014273464E+03  0.00000000000E+00 0.  1.
          1    1    3    3  501    0 -0.71890722066E+02  0.14002937766E+03 -0.34098178955E+03  0.37555969344E+03  0.00000000000E+00 0.  1.
         21    1    1    2  502  501  0.50173043588E+01  0.83924056965E+01 -0.10135340121E+02  0.14083001661E+02  0.00000000000E+00 0. -1.
<mgrwt>
<rscale>  1 0.30000000E+03</rscale>
<asrwt>0</asrwt>
<pdfrwt beam="1">  1        1 0.10831088E+00 0.30000000E+03</pdfrwt>
<pdfrwt beam="2">0</pdfrwt>
<totfact> 0.30409890E+01</totfact>
</mgrwt>
</event>
<event>
 6    1  0.1940992E-004  0.3000000E+03  0.7818608E-02  0.1093470E+00
          1   -1    0    0  502    0  0.00000000000E+00  0.00000000000E+00  0.48982108452E+02  0.48982108452E+02  0.00000000000E+00 0.  1.
         13   -1    0    0    0    0 -0.00000000000E+00 -0.00000000000E+00 -0.10000000000E+04  0.10000000000E+04  0.00000000000E+00 0.  1.
    9000005    2    1    2  501    0 -0.12496994512E+01 -0.60580820263E+02 -0.92903739808E+03  0.98452483868E+03  0.32016725853E+03 0.  0.
         13    1    3    3    0    0 -0.35161653188E+01 -0.19091271129E+03 -0.63027232246E+03  0.65856148324E+03  0.00000000000E+00 0.  1.
          1    1    3    3  501    0  0.22664658676E+01  0.13033189102E+03 -0.29876507562E+03  0.32596335544E+03  0.00000000000E+00 0.  1.
         21    1    1    2  502  501  0.12496994512E+01  0.60580820263E+02 -0.21980493473E+02  0.64457269767E+02  0.00000000000E+00 0.  1.
<mgrwt>
<rscale>  1 0.30000000E+03</rscale>
<asrwt>0</asrwt>
<pdfrwt beam="1">  1        1 0.17811713E+00 0.30000000E+03</pdfrwt>
<pdfrwt beam="2">0</pdfrwt>
<totfact> 0.13045422E+01</totfact>
</mgrwt>
</event>
<event>
 6    1  0.1940992E-004  0.3000000E+03  0.7818608E-02  0.1093470E+00
          1   -1    0    0  502    0  0.00000000000E+00  0.00000000000E+00  0.31136173228E+02  0.31136173228E+02  0.00000000000E+00 0.  1.
         13   -1    0    0    0    0 -0.00000000000E+00 -0.00000000000E+00 -0.10000000000E+04  0.10000000000E+04  0.00000000000E+00 0.  1.
    9000005    2    1    2  501    0 -0.13131016053E+02 -0.67797561980E+01 -0.96311294555E+03  0.10152786415E+04  0.32091398441E+03 0.  0.
         13    1    3    3    0    0 -0.11147373836E+03  0.11748251825E+03 -0.52329235926E+03  0.54778045757E+03  0.00000000000E+00 0.  1.
          1    1    3    3  501    0  0.98342722310E+02 -0.12426227444E+03 -0.43982058629E+03  0.46749818396E+03  0.00000000000E+00 0.  1.
         21    1    1    2  502  501  0.13131016053E+02  0.67797561980E+01 -0.57508812230E+01  0.15857531697E+02  0.00000000000E+00 0. -1.
<mgrwt>
<rscale>  1 0.30000000E+03</rscale>
<asrwt>0</asrwt>
<pdfrwt beam="1">  1        1 0.11322269E+00 0.30000000E+03</pdfrwt>
<pdfrwt beam="2">0</pdfrwt>
<totfact> 0.28435705E+01</totfact>
</mgrwt>
</event>
<event>
 6    1  0.1940992E-004  0.3000000E+03  0.7818608E-02  0.1093470E+00
          1   -1    0    0  502    0  0.00000000000E+00  0.00000000000E+00  0.66530640583E+02  0.66530640583E+02  0.00000000000E+00 0.  1.
         13   -1    0    0    0    0 -0.00000000000E+00 -0.00000000000E+00 -0.10000000000E+04  0.10000000000E+04  0.00000000000E+00 0.  1.
    9000005    2    1    2  501    0 -0.74244022182E+02 -0.94313369818E+02 -0.86315659659E+03  0.92742251295E+03  0.31727908966E+03 0.  0.
         13    1    3    3    0    0 -0.37218540011E+02 -0.19075526844E+03 -0.31896453069E+03  0.37351193287E+03  0.00000000000E+00 0.  1.
          3    1    3    3  501    0 -0.37025482170E+02  0.96441898618E+02 -0.54419206590E+03  0.55391058009E+03  0.00000000000E+00 0.  1.
         21    1    1    2  502  501  0.74244022182E+02  0.94313369818E+02 -0.70312762823E+02  0.13910812763E+03  0.00000000000E+00 0.  1.
<mgrwt>
<rscale>  1 0.30000000E+03</rscale>
<asrwt>0</asrwt>
<pdfrwt beam="1">  1        1 0.24193011E+00 0.30000000E+03</pdfrwt>
<pdfrwt beam="2">0</pdfrwt>
<totfact> 0.65068780E+00</totfact>
</mgrwt>
</event>
<event>
 6    1  0.1940992E-004  0.3000000E+03  0.7818608E-02  0.1093470E+00
          3   -1    0    0  502    0  0.00000000000E+00  0.00000000000E+00  0.36972119485E+02  0.36972119485E+02  0.00000000000E+00 0.  1.
         13   -1    0    0    0    0 -0.00000000000E+00 -0.00000000000E+00 -0.10000000000E+04  0.10000000000E+04  0.00000000000E+00 0.  1.
    9000005    2    1    2  501    0  0.35992192869E+02  0.62712407270E+01 -0.93829460330E+03  0.99285294667E+03  0.32252975790E+03 0.  0.
         13    1    3    3    0    0  0.34397685368E+02  0.16142584167E+03 -0.56448034266E+03  0.58811526112E+03  0.00000000000E+00 0.  1.
          3    1    3    3  501    0  0.15945075009E+01 -0.15515460094E+03 -0.37381426064E+03  0.40473768555E+03  0.00000000000E+00 0.  1.
         21    1    1    2  502  501 -0.35992192869E+02 -0.62712407270E+01 -0.24733277220E+02  0.44119172814E+02  0.00000000000E+00 0. -1.
<mgrwt>
<rscale>  1 0.30000000E+03</rscale>
<asrwt>0</asrwt>
<pdfrwt beam="1">  1        3 0.13444435E+00 0.30000000E+03</pdfrwt>
<pdfrwt beam="2">0</pdfrwt>
<totfact> 0.15673749E+00</totfact>
</mgrwt>
</event>
<event>
 6    1  0.1940992E-004  0.3000000E+03  0.7818608E-02  0.1093470E+00
          1   -1    0    0  502    0  0.00000000000E+00  0.00000000000E+00  0.51249792300E+02  0.51249792300E+02  0.00000000000E+00 0.  1.
         13   -1    0    0    0    0 -0.00000000000E+00 -0.00000000000E+00 -0.10000000000E+04  0.10000000000E+04  0.00000000000E+00 0.  1.
    9000005    2    1    2  501    0  0.24612231877E+02  0.65976939162E+01 -0.96653606851E+03  0.10201752309E+04  0.32544775069E+03 0.  0.
         13    1    3    3    0    0  0.88558142145E+02 -0.12923357594E+03 -0.66661822225E+03  0.68478004930E+03  0.00000000000E+00 0.  1.
          1    1    3    3  501    0 -0.63945910268E+02  0.13583126986E+03 -0.29991784626E+03  0.33539518157E+03  0.00000000000E+00 0.  1.
         21    1    1    2  502  501 -0.24612231877E+02 -0.65976939162E+01  0.17785860814E+02  0.31074561427E+02  0.00000000000E+00 0.  1.
<mgrwt>
<rscale>  1 0.30000000E+03</rscale>
<asrwt>0</asrwt>
<pdfrwt beam="1">  1        1 0.18636327E+00 0.30000000E+03</pdfrwt>
<pdfrwt beam="2">0</pdfrwt>
<totfact> 0.11903342E+01</totfact>
</mgrwt>
</event>
<event>
 6    1  0.1940992E-004  0.3000000E+03  0.7818608E-02  0.1093470E+00
          1   -1    0    0  502    0  0.00000000000E+00  0.00000000000E+00  0.46657313125E+02  0.46657313125E+02  0.00000000000E+00 0.  1.
         13   -1    0    0    0    0 -0.00000000000E+00 -0.00000000000E+00 -0.10000000000E+04  0.10000000000E+04  0.00000000000E+00 0.  1.
    9000005    2    1    2  501    0 -0.12748630238E+02 -0.18404641530E+01 -0.97345959660E+03  0.10227699747E+04  0.31347873933E+03 0.  0.
         13    1    3    3    0    0 -0.38746013389E+02  0.15160615832E+03 -0.54010969995E+03  0.56232034355E+03  0.00000000000E+00 0.  1.
          3    1    3    3  501    0  0.25997383151E+02 -0.15344662247E+03 -0.43334989665E+03  0.46044963113E+03  0.00000000000E+00 0.  1.
         21    1    1    2  502  501  0.12748630238E+02  0.18404641530E+01  0.20116909724E+02  0.23887338447E+02  0.00000000000E+00 0.  1.
<mgrwt>
<rscale>  1 0.30000000E+03</rscale>
<asrwt>0</asrwt>
<pdfrwt beam="1">  1        1 0.16966331E+00 0.30000000E+03</pdfrwt>
<pdfrwt beam="2">0</pdfrwt>
<totfact> 0.14341442E+01</totfact>
</mgrwt>
</event>
<event>
 6    1  0.1940992E-004  0.3000000E+03  0.7818608E-02  0.1093470E+00
          1   -1    0    0  502    0  0.00000000000E+00  0.00000000000E+00  0.35091682832E+02  0.35091682832E+02  0.00000000000E+00 0.  1.
         13   -1    0    0    0    0 -0.00000000000E+00 -0.00000000000E+00 -0.10000000000E+04  0.10000000000E+04  0.00000000000E+00 0.  1.
    9000005    2    1    2  501    0 -0.25636235168E+02  0.28998807234E+02 -0.91528295735E+03  0.97215660746E+03  0.32534202010E+03 0.  0.
         13    1    3    3    0    0  0.11246426093E+03 -0.66858773528E+02 -0.60776744911E+03  0.62169090212E+03  0.00000000000E+00 0.  1.
          3    1    3    3  501    0 -0.13810049610E+03  0.95857580762E+02 -0.30751550824E+03  0.35046570534E+03  0.00000000000E+00 0.  1.
         21    1    1    2  502  501  0.25636235168E+02 -0.28998807234E+02 -0.49625359817E+02  0.62935075368E+02  0.00000000000E+00 0.  1.
<mgrwt>
<rscale>  1 0.30000000E+03</rscale>
<asrwt>0</asrwt>
<pdfrwt beam="1">  1        1 0.12760639E+00 0.30000000E+03</pdfrwt>
<pdfrwt beam="2">0</pdfrwt>
<totfact> 0.23579939E+01</totfact>
</mgrwt>
</event>
<event>
 6    1  0.1940992E-004  0.3000000E+03  0.7818608E-02  0.1093470E+00
          1   -1    0    0  502    0  0.00000000000E+00  0.00000000000E+00  0.33141007477E+02  0.33141007477E+02  0.00000000000E+00 0.  1.
         13   -1    0    0    0    0 -0.00000000000E+00 -0.00000000000E+00 -0.10000000000E+04  0.10000000000E+04  0.00000000000E+00 0.  1.
    9000005    2    1    2  501    0  0.98236247177E+01  0.19196952766E+02 -0.95178224363E+03  0.10068287488E+04  0.32764258510E+03 0.  0.
         13    1    3    3    0    0 -0.14935772242E+03  0.40209710724E+01 -0.29273510185E+03  0.32866051985E+03  0.00000000000E+00 0.  1.
          1    1    3    3  501    0  0.15918134714E+03  0.15175981694E+02 -0.65904714179E+03  0.67816822898E+03  0.00000000000E+00 0.  1.
         21    1    1    2  502  501 -0.98236247177E+01 -0.19196952766E+02 -0.15076748890E+02  0.26312258649E+02  0.00000000000E+00 0.  1.
<mgrwt>
<rscale>  1 0.30000000E+03</rscale>
<asrwt>0</asrwt>
<pdfrwt beam="1">  1        1 0.12051301E+00 0.30000000E+03</pdfrwt>
<pdfrwt beam="2">0</pdfrwt>
<totfact> 0.25823167E+01</totfact>
</mgrwt>
</event>
<event>
 6    1  0.1940992E-004  0.3000000E+03  0.7818608E-02  0.1093470E+00
          1   -1    0    0  502    0  0.00000000000E+00  0.00000000000E+00  0.30456071135E+02  0.30456071135E+02  0.00000000000E+00 0.  1.
         13   -1    0    0    0    0 -0.00000000000E+00 -0.00000000000E+00 -0.10000000000E+04  0.10000000000E+04  0.00000000000E+00 0.  1.
    9000005    2    1    2  501    0  0.85526985535E+01  0.27578008512E+02 -0.93034006253E+03  0.98176686964E+03  0.31224967443E+03 0.  0.
         13    1    3    3    0    0 -0.36464356480E+02  0.52272889060E+02 -0.15638329435E+02  0.65625159594E+02  0.00000000000E+00 0.  1.
          3    1    3    3  501    0  0.45017055034E+02 -0.24694880548E+02 -0.91470173309E+03  0.91614171005E+03  0.00000000000E+00 0.  1.
         21    1    1    2  502  501 -0.85526985535E+01 -0.27578008512E+02 -0.39203866339E+02  0.48689201493E+02  0.00000000000E+00 0.  1.
<mgrwt>
<rscale>  1 0.30000000E+03</rscale>
<asrwt>0</asrwt>
<pdfrwt beam="1">  1        1 0.11074958E+00 0.30000000E+03</pdfrwt>
<pdfrwt beam="2">0</pdfrwt>
<totfact> 0.29406220E+01</totfact>
</mgrwt>
</event>
<event>
 6    1  0.1940992E-004  0.3000000E+03  0.7818608E-02  0.1093470E+00
          1   -1    0    0  502    0  0.00000000000E+00  0.00000000000E+00  0.41976588820E+02  0.41976588820E+02  0.00000000000E+00 0.  1.
         13   -1    0    0    0    0 -0.00000000000E+00 -0.00000000000E+00 -0.10000000000E+04  0.10000000000E+04  0.00000000000E+00 0.  1.
    9000005    2    1    2  501    0  0.16734623561E+02 -0.47063995448E+02 -0.91031782616E+03  0.97290495836E+03  0.33966225293E+03 0.  0.
         13    1    3    3    0    0 -0.78824872232E+02 -0.92720245912E+02 -0.83283879107E+03  0.84168334687E+03  0.00000000000E+00 0.  1.
          1    1    3    3  501    0  0.95559495793E+02  0.45656250463E+02 -0.77479035097E+02  0.13122161149E+03  0.00000000000E+00 0.  1.
         21    1    1    2  502  501 -0.16734623561E+02  0.47063995448E+02 -0.47705585015E+02  0.69071630464E+02  0.00000000000E+00 0.  1.
<mgrwt>
<rscale>  1 0.30000000E+03</rscale>
<asrwt>0</asrwt>
<pdfrwt beam="1">  1        1 0.15264246E+00 0.30000000E+03</pdfrwt>
<pdfrwt beam="2">0</pdfrwt>
<totfact> 0.17419572E+01</totfact>
</mgrwt>
</event>
<event>
 6    1  0.1940992E-004  0.3000000E+03  0.7818608E-02  0.1093470E+00
          1   -1    0    0  502    0  0.00000000000E+00  0.00000000000E+00  0.47357164187E+02  0.47357164187E+02  0.00000000000E+00 0.  1.
         13   -1    0    0    0    0 -0.00000000000E+00 -0.00000000000E+00 -0.10000000000E+04  0.10000000000E+04  0.00000000000E+00 0.  1.
    9000005    2    1    2  501    0  0.23092501874E+01  0.27787382202E+02 -0.96341641593E+03  0.10174650034E+04  0.32601590681E+03 0.  0.
         13    1    3    3    0    0 -0.99054314445E+02 -0.11228688949E+03 -0.36356007754E+03  0.39318702006E+03  0.00000000000E+00 0.  1.
          1    1    3    3  501    0  0.10136356463E+03  0.14007427169E+03 -0.59985633838E+03  0.62427798337E+03  0.00000000000E+00 0.  1.
         21    1    1    2  502  501 -0.23092501874E+01 -0.27787382202E+02  0.10773580113E+02  0.29892160754E+02  0.00000000000E+00 0.  1.
<mgrwt>
<rscale>  1 0.30000000E+03</rscale>
<asrwt>0</asrwt>
<pdfrwt beam="1">  1        1 0.17220823E+00 0.30000000E+03</pdfrwt>
<pdfrwt beam="2">0</pdfrwt>
<totfact> 0.13937040E+01</totfact>
</mgrwt>
</event>
<event>
 6    1  0.1940992E-004  0.3000000E+03  0.7818608E-02  0.1093470E+00
          1   -1    0    0  502    0  0.00000000000E+00  0.00000000000E+00  0.33618273071E+02  0.33618273071E+02  0.00000000000E+00 0.  1.
         13   -1    0    0    0    0 -0.00000000000E+00 -0.00000000000E+00 -0.10000000000E+04  0.10000000000E+04  0.00000000000E+00 0.  1.
    9000005    2    1    2  501    0  0.28181559350E+02 -0.29179123216E+00 -0.94320176205E+03  0.99712723032E+03  0.32224038244E+03 0.  0.
         13    1    3    3    0    0  0.12989382287E+03 -0.11103668621E+03 -0.55950765078E+03  0.58502167668E+03  0.00000000000E+00 0.  1.
          3    1    3    3  501    0 -0.10171226352E+03  0.11074489498E+03 -0.38369411127E+03  0.41210555364E+03  0.00000000000E+00 0.  1.
         21    1    1    2  502  501 -0.28181559350E+02  0.29179123216E+00 -0.23179964877E+02  0.36491042753E+02  0.00000000000E+00 0. -1.
<mgrwt>
<rscale>  1 0.30000000E+03</rscale>
<asrwt>0</asrwt>
<pdfrwt beam="1">  1        1 0.12224852E+00 0.30000000E+03</pdfrwt>
<pdfrwt beam="2">0</pdfrwt>
<totfact> 0.25249601E+01</totfact>
</mgrwt>
</event>
<event>
 6    1  0.1940992E-004  0.3000000E+03  0.7818608E-02  0.1093470E+00
          1   -1    0    0  502    0  0.00000000000E+00  0.00000000000E+00  0.50458959860E+02  0.50458959860E+02  0.00000000000E+00 0.  1.
         13   -1    0    0    0    0 -0.00000000000E+00 -0.00000000000E+00 -0.10000000000E+04  0.10000000000E+04  0.00000000000E+00 0.  1.
    9000005    2    1    2  501    0  0.17091986257E+02  0.56837673763E+01 -0.96914679949E+03  0.10238351546E+04  0.32964900072E+03 0.  0.
         13    1    3    3    0    0 -0.12178005110E+02 -0.11480080130E+03 -0.12314726574E+03  0.16879803568E+03  0.00000000000E+00 0.  1.
          1    1    3    3  501    0  0.29269991367E+02  0.12048456868E+03 -0.84599953374E+03  0.85503711895E+03  0.00000000000E+00 0.  1.
         21    1    1    2  502  501 -0.17091986257E+02 -0.56837673763E+01  0.19605759348E+02  0.26623805239E+02  0.00000000000E+00 0.  1.
<mgrwt>
<rscale>  1 0.30000000E+03</rscale>
<asrwt>0</asrwt>
<pdfrwt beam="1">  1        1 0.18348751E+00 0.30000000E+03</pdfrwt>
<pdfrwt beam="2">0</pdfrwt>
<totfact> 0.12288683E+01</totfact>
</mgrwt>
</event>
<event>
 6    1  0.1940992E-004  0.3000000E+03  0.7818608E-02  0.1093470E+00
          1   -1    0    0  502    0  0.00000000000E+00  0.00000000000E+00  0.30991453782E+02  0.30991453782E+02  0.00000000000E+00 0.  1.
         13   -1    0    0    0    0 -0.00000000000E+00 -0.00000000000E+00 -0.10000000000E+04  0.10000000000E+04  0.00000000000E+00 0.  1.
    9000005    2    1    2  501    0  0.10374524259E+02  0.52072601431E+01 -0.96185385324E+03  0.10173556207E+04  0.33123236210E+03 0.  0.
         13    1    3    3    0    0 -0.15173695403E+03 -0.31695287146E+02 -0.59005027119E+03  0.61007214080E+03  0.00000000000E+00 0.  1.
          3    1    3    3  501    0  0.16211147829E+03  0.36902547289E+02 -0.37180358205E+03  0.40728347992E+03  0.00000000000E+00 0.  1.
         21    1    1    2  502  501 -0.10374524259E+02 -0.52072601431E+01 -0.71546929804E+01  0.13635833067E+02  0.00000000000E+00 0. -1.
<mgrwt>
<rscale>  1 0.30000000E+03</rscale>
<asrwt>0</asrwt>
<pdfrwt beam="1">  1        1 0.11269643E+00 0.30000000E+03</pdfrwt>
<pdfrwt beam="2">0</pdfrwt>
<totfact> 0.28638361E+01</totfact>
</mgrwt>
</event>
<event>
 6    1  0.1940992E-004  0.3000000E+03  0.7818608E-02  0.1093470E+00
          1   -1    0    0  502    0  0.00000000000E+00  0.00000000000E+00  0.36929688903E+02  0.36929688903E+02  0.00000000000E+00 0.  1.
         13   -1    0    0    0    0 -0.00000000000E+00 -0.00000000000E+00 -0.10000000000E+04  0.10000000000E+04  0.00000000000E+00 0.  1.
    9000005    2    1    2  501    0 -0.11656644473E+02 -0.10085938150E+01 -0.97761214365E+03  0.10182652972E+04  0.28460818248E+03 0.  0.
         13    1    3    3    0    0 -0.69629795481E+02  0.11584471987E+03 -0.68029046378E+03  0.69358735762E+03  0.00000000000E+00 0.  1.
          3    1    3    3  501    0  0.57973151008E+02 -0.11685331368E+03 -0.29732167987E+03  0.32467793962E+03  0.00000000000E+00 0.  1.
         21    1    1    2  502  501  0.11656644473E+02  0.10085938150E+01  0.14541832556E+02  0.18664391657E+02  0.00000000000E+00 0. -1.
<mgrwt>
<rscale>  1 0.30000000E+03</rscale>
<asrwt>0</asrwt>
<pdfrwt beam="1">  1        1 0.13429006E+00 0.30000000E+03</pdfrwt>
<pdfrwt beam="2">0</pdfrwt>
<totfact> 0.21691275E+01</totfact>
</mgrwt>
</event>
<event>
 6    1  0.1940992E-004  0.3000000E+03  0.7818608E-02  0.1093470E+00
          3   -1    0    0  502    0  0.00000000000E+00  0.00000000000E+00  0.33986354332E+02  0.33986354332E+02  0.00000000000E+00 0.  1.
         13   -1    0    0    0    0 -0.00000000000E+00 -0.00000000000E+00 -0.10000000000E+04  0.10000000000E+04  0.00000000000E+00 0.  1.
    9000005    2    1    2  501    0 -0.10337445092E+02  0.77913137148E+01 -0.96788216243E+03  0.10209074134E+04  0.32448189331E+03 0.  0.
         13    1    3    3    0    0 -0.10998669790E+03  0.84236701088E+02 -0.20290952752E+03  0.24569324753E+03  0.00000000000E+00 0.  1.
          3    1    3    3  501    0  0.99649252804E+02 -0.76445387373E+02 -0.76497263491E+03  0.77521416589E+03  0.00000000000E+00 0.  1.
         21    1    1    2  502  501  0.10337445092E+02 -0.77913137148E+01  0.18685167618E+01  0.13078940910E+02  0.00000000000E+00 0.  1.
<mgrwt>
<rscale>  1 0.30000000E+03</rscale>
<asrwt>0</asrwt>
<pdfrwt beam="1">  1        3 0.12358700E+00 0.30000000E+03</pdfrwt>
<pdfrwt beam="2">0</pdfrwt>
<totfact> 0.21014504E+00</totfact>
</mgrwt>
</event>
<event>
 6    1  0.1940992E-004  0.3000000E+03  0.7818608E-02  0.1093470E+00
          1   -1    0    0  502    0  0.00000000000E+00  0.00000000000E+00  0.50023772841E+02  0.50023772841E+02  0.00000000000E+00 0.  1.
         13   -1    0    0    0    0 -0.00000000000E+00 -0.00000000000E+00 -0.10000000000E+04  0.10000000000E+04  0.00000000000E+00 0.  1.
    9000005    2    1    2  501    0 -0.12150958110E+01 -0.15175106031E+02 -0.97333148056E+03  0.10221449608E+04  0.31172806975E+03 0.  0.
         13    1    3    3    0    0 -0.51106287278E+02 -0.12816958106E+03 -0.78423581623E+03  0.79628205402E+03  0.00000000000E+00 0.  1.
          1    1    3    3  501    0  0.49891191467E+02  0.11299447503E+03 -0.18909566434E+03  0.22586290675E+03  0.00000000000E+00 0.  1.
         21    1    1    2  502  501  0.12150958110E+01  0.15175106031E+02  0.23355253405E+02  0.27878812071E+02  0.00000000000E+00 0. -1.
<mgrwt>
<rscale>  1 0.30000000E+03</rscale>
<asrwt>0</asrwt>
<pdfrwt beam="1">  1        1 0.18190501E+00 0.30000000E+03</pdfrwt>
<pdfrwt beam="2">0</pdfrwt>
<totfact> 0.12506542E+01</totfact>
</mgrwt>
</event>
<event>
 6    1  0.1940992E-004  0.3000000E+03  0.7818608E-02  0.1093470E+00
          1   -1    0    0  502    0  0.00000000000E+00  0.00000000000E+00  0.53486145097E+02  0.53486145097E+02  0.00000000000E+00 0.  1.
         13   -1    0    0    0    0 -0.00000000000E+00 -0.00000000000E+00 -0.10000000000E+04  0.10000000000E+04  0.00000000000E+00 0.  1.
    9000005    2    1    2  501    0 -0.69843832100E+02  0.21547323848E+02 -0.91273812408E+03  0.97296752589E+03  0.32898704416E+03 0.  0.
         13    1    3    3    0    0 -0.10918380387E+03  0.92961084380E+02 -0.86839820095E+03  0.88015811173E+03  0.00000000000E+00 0.  1.
          3    1    3    3  501    0  0.39339971768E+02 -0.71413760532E+02 -0.44339923136E+02  0.92809414155E+02  0.00000000000E+00 0.  1.
         21    1    1    2  502  501  0.69843832100E+02 -0.21547323848E+02 -0.33775730820E+02  0.80518619212E+02  0.00000000000E+00 0. -1.
<mgrwt>
<rscale>  1 0.30000000E+03</rscale>
<asrwt>0</asrwt>
<pdfrwt beam="1">  1        1 0.19449548E+00 0.30000000E+03</pdfrwt>
<pdfrwt beam="2">0</pdfrwt>
<totfact> 0.10880921E+01</totfact>
</mgrwt>
</event>
<event>
 6    1  0.1940992E-004  0.3000000E+03  0.7818608E-02  0.1093470E+00
          1   -1    0    0  502    0  0.00000000000E+00  0.00000000000E+00  0.25467614278E+02  0.25467614278E+02  0.00000000000E+00 0.  1.
         13   -1    0    0    0    0 -0.00000000000E+00 -0.00000000000E+00 -0.10000000000E+04  0.10000000000E+04  0.00000000000E+00 0.  1.
    9000005    2    1    2  501    0  0.12452555406E+01  0.59946737052E+02 -0.91512697787E+03  0.94106284885E+03  0.21106098152E+03 0.  0.
         13    1    3    3    0    0 -0.10163000113E+03  0.39831664607E+02 -0.57041194117E+03  0.58076243100E+03  0.00000000000E+00 0.  1.
          3    1    3    3  501    0  0.10287525667E+03  0.20115072445E+02 -0.34471503670E+03  0.36030041785E+03  0.00000000000E+00 0.  1.
         21    1    1    2  502  501 -0.12452555406E+01 -0.59946737052E+02 -0.59405407853E+02  0.84404765427E+02  0.00000000000E+00 0.  1.
<mgrwt>
<rscale>  1 0.30000000E+03</rscale>
<asrwt>0</asrwt>
<pdfrwt beam="1">  1        1 0.92609702E-01 0.30000000E+03</pdfrwt>
<pdfrwt beam="2">0</pdfrwt>
<totfact> 0.38243751E+01</totfact>
</mgrwt>
</event>
<event>
 6    1  0.1940992E-004  0.3000000E+03  0.7818608E-02  0.1093470E+00
          1   -1    0    0  502    0  0.00000000000E+00  0.00000000000E+00  0.32151835957E+02  0.32151835957E+02  0.00000000000E+00 0.  1.
         13   -1    0    0    0    0 -0.00000000000E+00 -0.00000000000E+00 -0.10000000000E+04  0.10000000000E+04  0.00000000000E+00 0.  1.
    9000005    2    1    2  501    0 -0.10558737597E+02 -0.58905234581E+01 -0.96940316664E+03  0.10199615431E+04  0.31691144623E+03 0.  0.
         13    1    3    3    0    0 -0.72718109927E+02 -0.46520299778E+02 -0.93349039473E+03  0.93747340168E+03  0.00000000000E+00 0.  1.
          3    1    3    3  501    0  0.62159372330E+02  0.40629776320E+02 -0.35912771909E+02  0.82488141441E+02  0.00000000000E+00 0.  1.
         21    1    1    2  502  501  0.10558737597E+02  0.58905234581E+01  0.15550025999E+01  0.12190292833E+02  0.00000000000E+00 0.  1.
<mgrwt>
<rscale>  1 0.30000000E+03</rscale>
<asrwt>0</asrwt>
<pdfrwt beam="1">  1        1 0.11691601E+00 0.30000000E+03</pdfrwt>
<pdfrwt beam="2">0</pdfrwt>
<totfact> 0.27068804E+01</totfact>
</mgrwt>
</event>
<event>
 6    1  0.1940992E-004  0.3000000E+03  0.7818608E-02  0.1093470E+00
          1   -1    0    0  502    0  0.00000000000E+00  0.00000000000E+00  0.33287049255E+02  0.33287049255E+02  0.00000000000E+00 0.  1.
         13   -1    0    0    0    0 -0.00000000000E+00 -0.00000000000E+00 -0.10000000000E+04  0.10000000000E+04  0.00000000000E+00 0.  1.
    9000005    2    1    2  501    0  0.10330697036E+02 -0.18468551118E+01 -0.96873752328E+03  0.10225990621E+04  0.32733212287E+03 0.  0.
         13    1    3    3    0    0 -0.70199961828E+02 -0.12062967549E+02 -0.92987640568E+03  0.93260049307E+03  0.00000000000E+00 0.  1.
          3    1    3    3  501    0  0.80530658864E+02  0.10216112437E+02 -0.38861117601E+02  0.89998569053E+02  0.00000000000E+00 0.  1.
         21    1    1    2  502  501 -0.10330697036E+02  0.18468551118E+01  0.20245725362E+01  0.10687987135E+02  0.00000000000E+00 0. -1.
<mgrwt>
<rscale>  1 0.30000000E+03</rscale>
<asrwt>0</asrwt>
<pdfrwt beam="1">  1        1 0.12104407E+00 0.30000000E+03</pdfrwt>
<pdfrwt beam="2">0</pdfrwt>
<totfact> 0.25645841E+01</totfact>
</mgrwt>
</event>
<event>
 6    1  0.1940992E-004  0.3000000E+03  0.7818608E-02  0.1093470E+00
          1   -1    0    0  502    0  0.00000000000E+00  0.00000000000E+00  0.28617784083E+02  0.28617784083E+02  0.00000000000E+00 0.  1.
         13   -1    0    0    0    0 -0.00000000000E+00 -0.00000000000E+00 -0.10000000000E+04  0.10000000000E+04  0.00000000000E+00 0.  1.
    9000005    2    1    2  501    0  0.54016039330E+01  0.11723310051E+02 -0.96076340292E+03  0.10119033438E+04  0.31735697177E+03 0.  0.
         13    1    3    3    0    0  0.11127384356E+03  0.79404752789E+01 -0.11754038530E+03  0.16205141649E+03  0.00000000000E+00 0.  1.
          1    1    3    3  501    0 -0.10587223963E+03  0.37828347725E+01 -0.84322301762E+03  0.84985192734E+03  0.00000000000E+00 0.  1.
         21    1    1    2  502  501 -0.54016039330E+01 -0.11723310051E+02 -0.10618812994E+02  0.16714440254E+02  0.00000000000E+00 0. -1.
<mgrwt>
<rscale>  1 0.30000000E+03</rscale>
<asrwt>0</asrwt>
<pdfrwt beam="1">  1        1 0.10406489E+00 0.30000000E+03</pdfrwt>
<pdfrwt beam="2">0</pdfrwt>
<totfact> 0.32278115E+01</totfact>
</mgrwt>
</event>
<event>
 6    1  0.1940992E-004  0.3000000E+03  0.7818608E-02  0.1093470E+00
          1   -1    0    0  502    0  0.00000000000E+00  0.00000000000E+00  0.27592618687E+02  0.27592618687E+02  0.00000000000E+00 0.  1.
         13   -1    0    0    0    0 -0.00000000000E+00 -0.00000000000E+00 -0.10000000000E+04  0.10000000000E+04  0.00000000000E+00 0.  1.
    9000005    2    1    2  501    0 -0.86084249803E+01  0.53855837123E+01 -0.88533565552E+03  0.93993079732E+03  0.31551160252E+03 0.  0.
         13    1    3    3    0    0  0.19481259739E+02  0.93646050156E+02 -0.82241304807E+03  0.82795671615E+03  0.00000000000E+00 0.  1.
          1    1    3    3  501    0 -0.28089684719E+02 -0.88260466444E+02 -0.62922607449E+02  0.11197408116E+03  0.00000000000E+00 0.  1.
         21    1    1    2  502  501  0.86084249803E+01 -0.53855837123E+01 -0.87071725797E+02  0.87661821370E+02  0.00000000000E+00 0.  1.
<mgrwt>
<rscale>  1 0.30000000E+03</rscale>
<asrwt>0</asrwt>
<pdfrwt beam="1">  1        1 0.10033701E+00 0.30000000E+03</pdfrwt>
<pdfrwt beam="2">0</pdfrwt>
<totfact> 0.34058909E+01</totfact>
</mgrwt>
</event>
<event>
 6    1  0.1940992E-004  0.3000000E+03  0.7818608E-02  0.1093470E+00
          1   -1    0    0  502    0  0.00000000000E+00  0.00000000000E+00  0.31180059722E+02  0.31180059722E+02  0.00000000000E+00 0.  1.
         13   -1    0    0    0    0 -0.00000000000E+00 -0.00000000000E+00 -0.10000000000E+04  0.10000000000E+04  0.00000000000E+00 0.  1.
    9000005    2    1    2  501    0 -0.17732508083E+02  0.44907046166E+01 -0.96095037506E+03  0.10112667896E+04  0.31448416195E+03 0.  0.
         13    1    3    3    0    0  0.89674148341E+02  0.11477995395E+03 -0.62460987730E+03  0.64136837273E+03  0.00000000000E+00 0.  1.
          1    1    3    3  501    0 -0.10740665642E+03 -0.11028924933E+03 -0.33634049776E+03  0.36989841686E+03  0.00000000000E+00 0.  1.
         21    1    1    2  502  501  0.17732508083E+02 -0.44907046166E+01 -0.78695652184E+01  0.19913270138E+02  0.00000000000E+00 0.  1.
<mgrwt>
<rscale>  1 0.30000000E+03</rscale>
<asrwt>0</asrwt>
<pdfrwt beam="1">  1        1 0.11338227E+00 0.30000000E+03</pdfrwt>
<pdfrwt beam="2">0</pdfrwt>
<totfact> 0.28374653E+01</totfact>
</mgrwt>
</event>
<event>
 6    1  0.1940992E-004  0.3000000E+03  0.7818608E-02  0.1093470E+00
          1   -1    0    0  502    0  0.00000000000E+00  0.00000000000E+00  0.45573083000E+02  0.45573083000E+02  0.00000000000E+00 0.  1.
         13   -1    0    0    0    0 -0.00000000000E+00 -0.00000000000E+00 -0.10000000000E+04  0.10000000000E+04  0.00000000000E+00 0.  1.
    9000005    2    1    2  501    0  0.26276324935E+02 -0.45293205756E+02 -0.92988110076E+03  0.98774214980E+03  0.32895861929E+03 0.  0.
         13    1    3    3    0    0  0.39591268495E+02  0.62908098955E+02 -0.28207359397E+02  0.79501902992E+02  0.00000000000E+00 0.  1.
          1    1    3    3  501    0 -0.13314943560E+02 -0.10820130471E+03 -0.90167374136E+03  0.90824024681E+03  0.00000000000E+00 0.  1.
         21    1    1    2  502  501 -0.26276324935E+02  0.45293205756E+02 -0.24545816241E+02  0.57830933199E+02  0.00000000000E+00 0.  1.
<mgrwt>
<rscale>  1 0.30000000E+03</rscale>
<asrwt>0</asrwt>
<pdfrwt beam="1">  1        1 0.16572065E+00 0.30000000E+03</pdfrwt>
<pdfrwt beam="2">0</pdfrwt>
<totfact> 0.14994351E+01</totfact>
</mgrwt>
</event>
<event>
 6    1  0.1940992E-004  0.3000000E+03  0.7818608E-02  0.1093470E+00
          1   -1    0    0  502    0  0.00000000000E+00  0.00000000000E+00  0.32615560089E+02  0.32615560089E+02  0.00000000000E+00 0.  1.
         13   -1    0    0    0    0 -0.00000000000E+00 -0.00000000000E+00 -0.10000000000E+04  0.10000000000E+04  0.00000000000E+00 0.  1.
    9000005    2    1    2  501    0 -0.10953819333E+02 -0.16196360209E+02 -0.95483776400E+03  0.10093835279E+04  0.32673788064E+03 0.  0.
         13    1    3    3    0    0  0.80176261580E+02 -0.14722551803E+03 -0.50011675717E+03  0.52746597699E+03  0.00000000000E+00 0.  1.
          1    1    3    3  501    0 -0.91130080913E+02  0.13102915782E+03 -0.45472100683E+03  0.48191755094E+03  0.00000000000E+00 0.  1.
         21    1    1    2  502  501  0.10953819333E+02  0.16196360209E+02 -0.12546675912E+02  0.23232032164E+02  0.00000000000E+00 0.  1.
<mgrwt>
<rscale>  1 0.30000000E+03</rscale>
<asrwt>0</asrwt>
<pdfrwt beam="1">  1        1 0.11860229E+00 0.30000000E+03</pdfrwt>
<pdfrwt beam="2">0</pdfrwt>
<totfact> 0.26474928E+01</totfact>
</mgrwt>
</event>
<event>
 6    1  0.1940992E-004  0.3000000E+03  0.7818608E-02  0.1093470E+00
          1   -1    0    0  502    0  0.00000000000E+00  0.00000000000E+00  0.34810911309E+02  0.34810911309E+02  0.00000000000E+00 0.  1.
         13   -1    0    0    0    0 -0.00000000000E+00 -0.00000000000E+00 -0.10000000000E+04  0.10000000000E+04  0.00000000000E+00 0.  1.
    9000005    2    1    2  501    0  0.69971983045E+01  0.89805329321E+01 -0.97079398962E+03  0.10221213223E+04  0.31962699571E+03 0.  0.
         13    1    3    3    0    0  0.68667978600E+02  0.14729760271E+03 -0.59929911405E+03  0.62094388084E+03  0.00000000000E+00 0.  1.
          1    1    3    3  501    0 -0.61670780295E+02 -0.13831706978E+03 -0.37149487556E+03  0.40117744142E+03  0.00000000000E+00 0.  1.
         21    1    1    2  502  501 -0.69971983045E+01 -0.89805329321E+01  0.56049009247E+01  0.12689589049E+02  0.00000000000E+00 0.  1.
<mgrwt>
<rscale>  1 0.30000000E+03</rscale>
<asrwt>0</asrwt>
<pdfrwt beam="1">  1        1 0.12658540E+00 0.30000000E+03</pdfrwt>
<pdfrwt beam="2">0</pdfrwt>
<totfact> 0.23886980E+01</totfact>
</mgrwt>
</event>
<event>
 6    1  0.1940992E-004  0.3000000E+03  0.7818608E-02  0.1093470E+00
          1   -1    0    0  502    0  0.00000000000E+00  0.00000000000E+00  0.39676743887E+02  0.39676743887E+02  0.00000000000E+00 0.  1.
         13   -1    0    0    0    0 -0.00000000000E+00 -0.00000000000E+00 -0.10000000000E+04  0.10000000000E+04  0.00000000000E+00 0.  1.
    9000005    2    1    2  501    0  0.11249989986E+02  0.12339761341E+02 -0.96685515625E+03  0.10217463868E+04  0.32996659507E+03 0.  0.
         13    1    3    3    0    0  0.87912584192E+02  0.13685500912E+03 -0.32482695502E+03  0.36327739633E+03  0.00000000000E+00 0.  1.
          1    1    3    3  501    0 -0.76662594206E+02 -0.12451524778E+03 -0.64202820123E+03  0.65846899050E+03  0.00000000000E+00 0.  1.
         21    1    1    2  502  501 -0.11249989986E+02 -0.12339761341E+02  0.65319001351E+01  0.17930357053E+02  0.00000000000E+00 0.  1.
<mgrwt>
<rscale>  1 0.30000000E+03</rscale>
<asrwt>0</asrwt>
<pdfrwt beam="1">  1        1 0.14427937E+00 0.30000000E+03</pdfrwt>
<pdfrwt beam="2">0</pdfrwt>
<totfact> 0.19220256E+01</totfact>
</mgrwt>
</event>
<event>
 6    1  0.1940992E-004  0.3000000E+03  0.7818608E-02  0.1093470E+00
          1   -1    0    0  502    0  0.00000000000E+00  0.00000000000E+00  0.30176477102E+02  0.30176477102E+02  0.00000000000E+00 0.  1.
         13   -1    0    0    0    0 -0.00000000000E+00 -0.00000000000E+00 -0.10000000000E+04  0.10000000000E+04  0.00000000000E+00 0.  1.
    9000005    2    1    2  501    0 -0.97642583320E+01 -0.74713899481E+01 -0.95884753930E+03  0.10136951354E+04  0.32869143812E+03 0.  0.
         13    1    3    3    0    0 -0.13425358623E+03 -0.98382458548E+02 -0.38363359584E+03  0.41818401383E+03  0.00000000000E+00 0.  1.
          3    1    3    3  501    0  0.12448932790E+03  0.90911068600E+02 -0.57521394346E+03  0.59551112157E+03  0.00000000000E+00 0.  1.
         21    1    1    2  502  501  0.97642583320E+01  0.74713899481E+01 -0.10975983595E+02  0.16481341706E+02  0.00000000000E+00 0.  1.
<mgrwt>
<rscale>  1 0.30000000E+03</rscale>
<asrwt>0</asrwt>
<pdfrwt beam="1">  1        1 0.10973288E+00 0.30000000E+03</pdfrwt>
<pdfrwt beam="2">0</pdfrwt>
<totfact> 0.29818844E+01</totfact>
</mgrwt>
</event>
<event>
 6    1  0.1940992E-004  0.3000000E+03  0.7818608E-02  0.1093470E+00
          1   -1    0    0  502    0  0.00000000000E+00  0.00000000000E+00  0.43372499103E+02  0.43372499103E+02  0.00000000000E+00 0.  1.
         13   -1    0    0    0    0 -0.00000000000E+00 -0.00000000000E+00 -0.10000000000E+04  0.10000000000E+04  0.00000000000E+00 0.  1.
    9000005    2    1    2  501    0  0.20624839040E+02 -0.10661293077E+02 -0.96612518515E+03  0.10182875801E+04  0.32089355747E+03 0.  0.
         13    1    3    3    0    0  0.14381162939E+03 -0.95030283580E+02 -0.52667032510E+03  0.55416078072E+03  0.00000000000E+00 0.  1.
          1    1    3    3  501    0 -0.12318679035E+03  0.84368990503E+02 -0.43945486005E+03  0.46412679937E+03  0.00000000000E+00 0.  1.
         21    1    1    2  502  501 -0.20624839040E+02  0.10661293077E+02  0.94976842561E+01  0.25084919010E+02  0.00000000000E+00 0.  1.
<mgrwt>
<rscale>  1 0.30000000E+03</rscale>
<asrwt>0</asrwt>
<pdfrwt beam="1">  1        1 0.15771851E+00 0.30000000E+03</pdfrwt>
<pdfrwt beam="2">0</pdfrwt>
<totfact> 0.16427137E+01</totfact>
</mgrwt>
</event>
<event>
 6    1  0.1940992E-004  0.3000000E+03  0.7818608E-02  0.1093470E+00
          1   -1    0    0  502    0  0.00000000000E+00  0.00000000000E+00  0.32391744140E+02  0.32391744140E+02  0.00000000000E+00 0.  1.
         13   -1    0    0    0    0 -0.00000000000E+00 -0.00000000000E+00 -0.10000000000E+04  0.10000000000E+04  0.00000000000E+00 0.  1.
    9000005    2    1    2  501    0  0.20097153538E+02  0.11620927546E+01 -0.93108846536E+03  0.99069113097E+03  0.33784307102E+03 0.  0.
         13    1    3    3    0    0  0.12776981367E+03 -0.13155804377E+02 -0.13172961281E+03  0.18398611732E+03  0.00000000000E+00 0.  1.
          3    1    3    3  501    0 -0.10767266013E+03  0.14317897131E+02 -0.79935885254E+03  0.80670501366E+03  0.00000000000E+00 0.  1.
         21    1    1    2  502  501 -0.20097153538E+02 -0.11620927546E+01 -0.36519790504E+02  0.41700613165E+02  0.00000000000E+00 0.  1.
<mgrwt>
<rscale>  1 0.30000000E+03</rscale>
<asrwt>0</asrwt>
<pdfrwt beam="1">  1        1 0.11778841E+00 0.30000000E+03</pdfrwt>
<pdfrwt beam="2">0</pdfrwt>
<totfact> 0.26759312E+01</totfact>
</mgrwt>
</event>
<event>
 6    1  0.1940992E-004  0.3000000E+03  0.7818608E-02  0.1093470E+00
          1   -1    0    0  502    0  0.00000000000E+00  0.00000000000E+00  0.38974010687E+02  0.38974010687E+02  0.00000000000E+00 0.  1.
         13   -1    0    0    0    0 -0.00000000000E+00 -0.00000000000E+00 -0.10000000000E+04  0.10000000000E+04  0.00000000000E+00 0.  1.
    9000005    2    1    2  501    0  0.17884476406E+02  0.54658269786E+01 -0.96557523215E+03  0.10197275728E+04  0.32735159084E+03 0.  0.
         13    1    3    3    0    0 -0.15372453247E+03  0.12078248107E+01 -0.51925971065E+03  0.54153793757E+03  0.00000000000E+00 0.  1.
          3    1    3    3  501    0  0.17160900888E+03  0.42580021680E+01 -0.44631552150E+03  0.47818963523E+03  0.00000000000E+00 0.  1.
         21    1    1    2  502  501 -0.17884476406E+02 -0.54658269786E+01  0.45492428369E+01  0.19246437885E+02  0.00000000000E+00 0.  1.
<mgrwt>
<rscale>  1 0.30000000E+03</rscale>
<asrwt>0</asrwt>
<pdfrwt beam="1">  1        1 0.14172397E+00 0.30000000E+03</pdfrwt>
<pdfrwt beam="2">0</pdfrwt>
<totfact> 0.19816611E+01</totfact>
</mgrwt>
</event>
<event>
 6    1  0.1940992E-004  0.3000000E+03  0.7818608E-02  0.1093470E+00
          1   -1    0    0  502    0  0.00000000000E+00  0.00000000000E+00  0.37355006784E+02  0.37355006784E+02  0.00000000000E+00 0.  1.
         13   -1    0    0    0    0 -0.00000000000E+00 -0.00000000000E+00 -0.10000000000E+04  0.10000000000E+04  0.00000000000E+00 0.  1.
    9000005    2    1    2  501    0  0.29777351169E+02 -0.31890593913E+02 -0.91419884918E+03  0.97215738800E+03  0.32776020287E+03 0.  0.
         13    1    3    3    0    0  0.12279437016E+03  0.89777358237E+01 -0.83312960517E+03  0.84217812611E+03  0.00000000000E+00 0.  1.
          1    1    3    3  501    0 -0.93017018996E+02 -0.40868329737E+02 -0.81069244008E+02  0.12997926189E+03  0.00000000000E+00 0.  1.
         21    1    1    2  502  501 -0.29777351169E+02  0.31890593913E+02 -0.48446144040E+02  0.65197618784E+02  0.00000000000E+00 0.  1.
<mgrwt>
<rscale>  1 0.30000000E+03</rscale>
<asrwt>0</asrwt>
<pdfrwt beam="1">  1        1 0.13583667E+00 0.30000000E+03</pdfrwt>
<pdfrwt beam="2">0</pdfrwt>
<totfact> 0.21282845E+01</totfact>
</mgrwt>
</event>
<event>
 6    1  0.1940992E-004  0.3000000E+03  0.7818608E-02  0.1093470E+00
          1   -1    0    0  502    0  0.00000000000E+00  0.00000000000E+00  0.37007527480E+02  0.37007527480E+02  0.00000000000E+00 0.  1.
         13   -1    0    0    0    0 -0.00000000000E+00 -0.00000000000E+00 -0.10000000000E+04  0.10000000000E+04  0.00000000000E+00 0.  1.
    9000005    2    1    2  501    0 -0.23412948546E+02 -0.41740833911E+02 -0.87074397224E+03  0.93308328016E+03  0.33190191196E+03 0.  0.
         13    1    3    3    0    0  0.15337561142E+03 -0.12656501326E+02 -0.45685982187E+03  0.48208418564E+03  0.00000000000E+00 0.  1.
          1    1    3    3  501    0 -0.17678855997E+03 -0.29084332585E+02 -0.41388415037E+03  0.45099909452E+03  0.00000000000E+00 0.  1.
         21    1    1    2  502  501  0.23412948546E+02  0.41740833911E+02 -0.92248500285E+02  0.10392424731E+03  0.00000000000E+00 0. -1.
<mgrwt>
<rscale>  1 0.30000000E+03</rscale>
<asrwt>0</asrwt>
<pdfrwt beam="1">  1        1 0.13457311E+00 0.30000000E+03</pdfrwt>
<pdfrwt beam="2">0</pdfrwt>
<totfact> 0.21615752E+01</totfact>
</mgrwt>
</event>
<event>
 6    1  0.1940992E-004  0.3000000E+03  0.7818608E-02  0.1093470E+00
          1   -1    0    0  502    0  0.00000000000E+00  0.00000000000E+00  0.33420958376E+02  0.33420958376E+02  0.00000000000E+00 0.  1.
         13   -1    0    0    0    0 -0.00000000000E+00 -0.00000000000E+00 -0.10000000000E+04  0.10000000000E+04  0.00000000000E+00 0.  1.
    9000005    2    1    2  501    0  0.88322068981E+01 -0.32405124343E+02 -0.91755079182E+03  0.97399142665E+03  0.32501037469E+03 0.  0.
         13    1    3    3    0    0  0.59498203444E+02  0.66111627039E+02 -0.82459204828E+03  0.82937496317E+03  0.00000000000E+00 0.  1.
          1    1    3    3  501    0 -0.50665996546E+02 -0.98516751382E+02 -0.92958743532E+02  0.14461646347E+03  0.00000000000E+00 0.  1.
         21    1    1    2  502  501 -0.88322068981E+01  0.32405124343E+02 -0.49028249808E+02  0.59429531730E+02  0.00000000000E+00 0.  1.
<mgrwt>
<rscale>  1 0.30000000E+03</rscale>
<asrwt>0</asrwt>
<pdfrwt beam="1">  1        1 0.12153101E+00 0.30000000E+03</pdfrwt>
<pdfrwt beam="2">0</pdfrwt>
<totfact> 0.25484665E+01</totfact>
</mgrwt>
</event>
<event>
 6    1  0.1940992E-004  0.3000000E+03  0.7818608E-02  0.1093470E+00
          3   -1    0    0  502    0  0.00000000000E+00  0.00000000000E+00  0.28952936374E+02  0.28952936374E+02  0.00000000000E+00 0.  1.
         13   -1    0    0    0    0 -0.00000000000E+00 -0.00000000000E+00 -0.10000000000E+04  0.10000000000E+04  0.00000000000E+00 0.  1.
    9000005    2    1    2  501    0 -0.12307937373E+02  0.58741760052E+01 -0.96333917333E+03  0.10132875976E+04  0.31391623295E+03 0.  0.
         13    1    3    3    0    0 -0.13286627437E+03 -0.85760709038E+00 -0.19779382643E+03  0.23827836689E+03  0.00000000000E+00 0.  1.
          3    1    3    3  501    0  0.12055833700E+03  0.67317830956E+01 -0.76554534690E+03  0.77500923071E+03  0.00000000000E+00 0.  1.
         21    1    1    2  502  501  0.12307937373E+02 -0.58741760052E+01 -0.77078902982E+01  0.15665338776E+02  0.00000000000E+00 0. -1.
<mgrwt>
<rscale>  1 0.30000000E+03</rscale>
<asrwt>0</asrwt>
<pdfrwt beam="1">  1        3 0.10528363E+00 0.30000000E+03</pdfrwt>
<pdfrwt beam="2">0</pdfrwt>
<totfact> 0.34103507E+00</totfact>
</mgrwt>
</event>
<event>
 6    1  0.1940992E-004  0.3000000E+03  0.7818608E-02  0.1093470E+00
          1   -1    0    0  502    0  0.00000000000E+00  0.00000000000E+00  0.33473289027E+02  0.33473289027E+02  0.00000000000E+00 0.  1.
         13   -1    0    0    0    0 -0.00000000000E+00 -0.00000000000E+00 -0.10000000000E+04  0.10000000000E+04  0.00000000000E+00 0.  1.
    9000005    2    1    2  501    0 -0.11821861546E+02  0.11566324009E+02 -0.96741457660E+03  0.10169105427E+04  0.31295774878E+03 0.  0.
         13    1    3    3    0    0  0.82619255123E+01 -0.87091765663E+02 -0.87772405493E+03  0.88207298545E+03  0.00000000000E+00 0.  1.
          3    1    3    3  501    0 -0.20083787059E+02  0.98658089673E+02 -0.89690521671E+02  0.13483755722E+03  0.00000000000E+00 0.  1.
         21    1    1    2  502  501  0.11821861546E+02 -0.11566324009E+02  0.88786562360E+00  0.16562746357E+02  0.00000000000E+00 0.  1.
<mgrwt>
<rscale>  1 0.30000000E+03</rscale>
<asrwt>0</asrwt>
<pdfrwt beam="1">  1        1 0.12172131E+00 0.30000000E+03</pdfrwt>
<pdfrwt beam="2">0</pdfrwt>
<totfact> 0.25422043E+01</totfact>
</mgrwt>
</event>
<event>
 6    1  0.1940992E-004  0.3000000E+03  0.7818608E-02  0.1093470E+00
          1   -1    0    0  502    0  0.00000000000E+00  0.00000000000E+00  0.38350170401E+02  0.38350170401E+02  0.00000000000E+00 0.  1.
         13   -1    0    0    0    0 -0.00000000000E+00 -0.00000000000E+00 -0.10000000000E+04  0.10000000000E+04  0.00000000000E+00 0.  1.
    9000005    2    1    2  501    0  0.19929509155E+02  0.14113961796E+02 -0.96038804333E+03  0.10138965131E+04  0.32410577930E+03 0.  0.
         13    1    3    3    0    0 -0.32543031892E+01 -0.11767967926E+03 -0.78244413269E+03  0.79125085667E+03  0.00000000000E+00 0.  1.
          3    1    3    3  501    0  0.23183812344E+02  0.13179364105E+03 -0.17794391064E+03  0.22264565639E+03  0.00000000000E+00 0.  1.
         21    1    1    2  502  501 -0.19929509155E+02 -0.14113961796E+02 -0.12617862731E+01  0.24453657341E+02  0.00000000000E+00 0.  1.
<mgrwt>
<rscale>  1 0.30000000E+03</rscale>
<asrwt>0</asrwt>
<pdfrwt beam="1">  1        1 0.13945546E+00 0.30000000E+03</pdfrwt>
<pdfrwt beam="2">0</pdfrwt>
<totfact> 0.20365814E+01</totfact>
</mgrwt>
</event>
<event>
 6    1  0.1940992E-004  0.3000000E+03  0.7818608E-02  0.1093470E+00
          1   -1    0    0  502    0  0.00000000000E+00  0.00000000000E+00  0.54244059675E+02  0.54244059675E+02  0.00000000000E+00 0.  1.
         13   -1    0    0    0    0 -0.00000000000E+00 -0.00000000000E+00 -0.10000000000E+04  0.10000000000E+04  0.00000000000E+00 0.  1.
    9000005    2    1    2  501    0  0.51168297097E+02  0.80274803363E+02 -0.74351288412E+03  0.83071667329E+03  0.35807337759E+03 0.  0.
         13    1    3    3    0    0  0.62662116623E+02 -0.53713537424E+02 -0.78975317336E+01  0.82909926847E+02  0.00000000000E+00 0.  1.
          3    1    3    3  501    0 -0.11493819526E+02  0.13398834079E+03 -0.73561535239E+03  0.74780674644E+03  0.00000000000E+00 0.  1.
         21    1    1    2  502  501 -0.51168297097E+02 -0.80274803363E+02 -0.20224305620E+03  0.22352738639E+03  0.00000000000E+00 0.  1.
<mgrwt>
<rscale>  1 0.30000000E+03</rscale>
<asrwt>0</asrwt>
<pdfrwt beam="1">  1        1 0.19725154E+00 0.30000000E+03</pdfrwt>
<pdfrwt beam="2">0</pdfrwt>
<totfact> 0.10556496E+01</totfact>
</mgrwt>
</event>
<event>
 6    1  0.1940992E-004  0.3000000E+03  0.7818608E-02  0.1093470E+00
          1   -1    0    0  502    0  0.00000000000E+00  0.00000000000E+00  0.33172411901E+02  0.33172411901E+02  0.00000000000E+00 0.  1.
         13   -1    0    0    0    0 -0.00000000000E+00 -0.00000000000E+00 -0.10000000000E+04  0.10000000000E+04  0.00000000000E+00 0.  1.
    9000005    2    1    2  501    0  0.18525181999E+02 -0.45561312474E+02 -0.94298432940E+03  0.97851423275E+03  0.25661574901E+03 0.  0.
         13    1    3    3    0    0  0.56704749100E+02 -0.13723917815E+03 -0.70802885311E+03  0.72343270414E+03  0.00000000000E+00 0.  1.
          1    1    3    3  501    0 -0.38179567101E+02  0.91677865671E+02 -0.23495547629E+03  0.25508152861E+03  0.00000000000E+00 0.  1.
         21    1    1    2  502  501 -0.18525181999E+02  0.45561312474E+02 -0.23843258695E+02  0.54658179147E+02  0.00000000000E+00 0. -1.
<mgrwt>
<rscale>  1 0.30000000E+03</rscale>
<asrwt>0</asrwt>
<pdfrwt beam="1">  1        1 0.12062721E+00 0.30000000E+03</pdfrwt>
<pdfrwt beam="2">0</pdfrwt>
<totfact> 0.25784898E+01</totfact>
</mgrwt>
</event>
<event>
 6    1  0.1940992E-004  0.3000000E+03  0.7818608E-02  0.1093470E+00
          1   -1    0    0  502    0  0.00000000000E+00  0.00000000000E+00  0.33201315894E+02  0.33201315894E+02  0.00000000000E+00 0.  1.
         13   -1    0    0    0    0 -0.00000000000E+00 -0.00000000000E+00 -0.10000000000E+04  0.10000000000E+04  0.00000000000E+00 0.  1.
    9000005    2    1    2  501    0  0.10543847211E+02  0.26637973185E+01 -0.96895921101E+03  0.10221136468E+04  0.32514010175E+03 0.  0.
         13    1    3    3    0    0 -0.94153697937E+02  0.11677073905E+03 -0.29933975816E+03  0.33482027290E+03  0.00000000000E+00 0.  1.
          1    1    3    3  501    0  0.10469754515E+03 -0.11410694173E+03 -0.66961945286E+03  0.68729337386E+03  0.00000000000E+00 0.  1.
         21    1    1    2  502  501 -0.10543847211E+02 -0.26637973185E+01  0.21605269087E+01  0.11087669128E+02  0.00000000000E+00 0. -1.
<mgrwt>
<rscale>  1 0.30000000E+03</rscale>
<asrwt>0</asrwt>
<pdfrwt beam="1">  1        1 0.12073231E+00 0.30000000E+03</pdfrwt>
<pdfrwt beam="2">0</pdfrwt>
<totfact> 0.25749743E+01</totfact>
</mgrwt>
</event>
<event>
 6    1  0.1940992E-004  0.3000000E+03  0.7818608E-02  0.1093470E+00
          1   -1    0    0  502    0  0.00000000000E+00  0.00000000000E+00  0.48315832940E+02  0.48315832940E+02  0.00000000000E+00 0.  1.
         13   -1    0    0    0    0 -0.00000000000E+00 -0.00000000000E+00 -0.10000000000E+04  0.10000000000E+04  0.00000000000E+00 0.  1.
    9000005    2    1    2  501    0  0.70733378390E+02 -0.18573991450E+01 -0.90354991682E+03  0.96273799237E+03  0.32473886281E+03 0.  0.
         13    1    3    3    0    0  0.16221007376E+03 -0.10591150019E+03 -0.51593679892E+03  0.55110809682E+03  0.00000000000E+00 0.  1.
          1    1    3    3  501    0 -0.91476695373E+02  0.10405410105E+03 -0.38761311790E+03  0.41162989555E+03  0.00000000000E+00 0.  1.
         21    1    1    2  502  501 -0.70733378390E+02  0.18573991450E+01 -0.48134250237E+02  0.85577840566E+02  0.00000000000E+00 0.  1.
<mgrwt>
<rscale>  1 0.30000000E+03</rscale>
<asrwt>0</asrwt>
<pdfrwt beam="1">  1        1 0.17569431E+00 0.30000000E+03</pdfrwt>
<pdfrwt beam="2">0</pdfrwt>
<totfact> 0.13403334E+01</totfact>
</mgrwt>
</event>
<event>
 6    1  0.1940992E-004  0.3000000E+03  0.7818608E-02  0.1093470E+00
          1   -1    0    0  502    0  0.00000000000E+00  0.00000000000E+00  0.38925348840E+02  0.38925348840E+02  0.00000000000E+00 0.  1.
         13   -1    0    0    0    0 -0.00000000000E+00 -0.00000000000E+00 -0.10000000000E+04  0.10000000000E+04  0.00000000000E+00 0.  1.
    9000005    2    1    2  501    0 -0.39208954362E+02  0.98733515241E+01 -0.86188704626E+03  0.93181322937E+03  0.35184057290E+03 0.  0.
         13    1    3    3    0    0  0.53745448593E+02 -0.14617305597E+03 -0.54226676358E+03  0.56418824732E+03  0.00000000000E+00 0.  1.
          3    1    3    3  501    0 -0.92954402955E+02  0.15604640750E+03 -0.31962028269E+03  0.36762498205E+03  0.00000000000E+00 0.  1.
         21    1    1    2  502  501  0.39208954362E+02 -0.98733515241E+01 -0.99187604896E+02  0.10711211947E+03  0.00000000000E+00 0. -1.
<mgrwt>
<rscale>  1 0.30000000E+03</rscale>
<asrwt>0</asrwt>
<pdfrwt beam="1">  1        1 0.14154702E+00 0.30000000E+03</pdfrwt>
<pdfrwt beam="2">0</pdfrwt>
<totfact> 0.19858768E+01</totfact>
</mgrwt>
</event>
<event>
 6    1  0.1940992E-004  0.3000000E+03  0.7818608E-02  0.1093470E+00
          1   -1    0    0  502    0  0.00000000000E+00  0.00000000000E+00  0.35487314170E+02  0.35487314170E+02  0.00000000000E+00 0.  1.
         13   -1    0    0    0    0 -0.00000000000E+00 -0.00000000000E+00 -0.10000000000E+04  0.10000000000E+04  0.00000000000E+00 0.  1.
    9000005    2    1    2  501    0 -0.13175029388E+02  0.11152972634E+02 -0.96292543865E+03  0.10181526797E+04  0.33032031215E+03 0.  0.
         13    1    3    3    0    0 -0.69711655055E+02  0.15068903872E+03 -0.65034043378E+03  0.67120010507E+03  0.00000000000E+00 0.  1.
          1    1    3    3  501    0  0.56536625667E+02 -0.13953606609E+03 -0.31258500487E+03  0.34695257464E+03  0.00000000000E+00 0.  1.
         21    1    1    2  502  501  0.13175029388E+02 -0.11152972634E+02 -0.15872471781E+01  0.17334634451E+02  0.00000000000E+00 0. -1.
<mgrwt>
<rscale>  1 0.30000000E+03</rscale>
<asrwt>0</asrwt>
<pdfrwt beam="1">  1        1 0.12904505E+00 0.30000000E+03</pdfrwt>
<pdfrwt beam="2">0</pdfrwt>
<totfact> 0.23155848E+01</totfact>
</mgrwt>
</event>
<event>
 6    1  0.1940992E-004  0.3000000E+03  0.7818608E-02  0.1093470E+00
          1   -1    0    0  502    0  0.00000000000E+00  0.00000000000E+00  0.31706564108E+02  0.31706564108E+02  0.00000000000E+00 0.  1.
         13   -1    0    0    0    0 -0.00000000000E+00 -0.00000000000E+00 -0.10000000000E+04  0.10000000000E+04  0.00000000000E+00 0.  1.
    9000005    2    1    2  501    0  0.93841063096E+01  0.11452212799E+02 -0.96282254381E+03  0.10159222273E+04  0.32380782319E+03 0.  0.
         13    1    3    3    0    0  0.13134869345E+03  0.90335464697E+02 -0.32790763714E+03  0.36460443490E+03  0.00000000000E+00 0.  1.
          3    1    3    3  501    0 -0.12196458714E+03 -0.78883251898E+02 -0.63491490667E+03  0.65131779237E+03  0.00000000000E+00 0.  1.
         21    1    1    2  502  501 -0.93841063096E+01 -0.11452212799E+02 -0.54708920809E+01  0.15784336837E+02  0.00000000000E+00 0.  1.
<mgrwt>
<rscale>  1 0.30000000E+03</rscale>
<asrwt>0</asrwt>
<pdfrwt beam="1">  1        1 0.11529684E+00 0.30000000E+03</pdfrwt>
<pdfrwt beam="2">0</pdfrwt>
<totfact> 0.27656469E+01</totfact>
</mgrwt>
</event>
<event>
 6    1  0.1940992E-004  0.3000000E+03  0.7818608E-02  0.1093470E+00
          1   -1    0    0  502    0  0.00000000000E+00  0.00000000000E+00  0.32440262150E+02  0.32440262150E+02  0.00000000000E+00 0.  1.
         13   -1    0    0    0    0 -0.00000000000E+00 -0.00000000000E+00 -0.10000000000E+04  0.10000000000E+04  0.00000000000E+00 0.  1.
    9000005    2    1    2  501    0  0.13200019199E+02  0.58524622133E+01 -0.96040879027E+03  0.10163272900E+04  0.33215602375E+03 0.  0.
         13    1    3    3    0    0 -0.85954552994E+02 -0.57396958720E+02 -0.84586239217E+03  0.85215361440E+03  0.00000000000E+00 0.  1.
          3    1    3    3  501    0  0.99154572193E+02  0.63249420933E+02 -0.11454639810E+03  0.16417367558E+03  0.00000000000E+00 0.  1.
         21    1    1    2  502  501 -0.13200019199E+02 -0.58524622133E+01 -0.71509475809E+01  0.16112972169E+02  0.00000000000E+00 0. -1.
<mgrwt>
<rscale>  1 0.30000000E+03</rscale>
<asrwt>0</asrwt>
<pdfrwt beam="1">  1        1 0.11796484E+00 0.30000000E+03</pdfrwt>
<pdfrwt beam="2">0</pdfrwt>
<totfact> 0.26697312E+01</totfact>
</mgrwt>
</event>
<event>
 6    1  0.1940992E-004  0.3000000E+03  0.7818608E-02  0.1093470E+00
          1   -1    0    0  502    0  0.00000000000E+00  0.00000000000E+00  0.29562151381E+02  0.29562151381E+02  0.00000000000E+00 0.  1.
         13   -1    0    0    0    0 -0.00000000000E+00 -0.00000000000E+00 -0.10000000000E+04  0.10000000000E+04  0.00000000000E+00 0.  1.
    9000005    2    1    2  501    0 -0.13559615447E+02  0.18750873193E+02 -0.95072694558E+03  0.99916514305E+03  0.30645358479E+03 0.  0.
         13    1    3    3    0    0  0.23182069420E+02  0.80062461905E+02 -0.91584516931E+03  0.91963024108E+03  0.00000000000E+00 0.  1.
          1    1    3    3  501    0 -0.36741684866E+02 -0.61311588713E+02 -0.34881776267E+02  0.79534901979E+02  0.00000000000E+00 0.  1.
         21    1    1    2  502  501  0.13559615447E+02 -0.18750873193E+02 -0.19710903040E+02  0.30397008327E+02  0.00000000000E+00 0.  1.
<mgrwt>
<rscale>  1 0.30000000E+03</rscale>
<asrwt>0</asrwt>
<pdfrwt beam="1">  1        1 0.10749896E+00 0.30000000E+03</pdfrwt>
<pdfrwt beam="2">0</pdfrwt>
<totfact> 0.30754890E+01</totfact>
</mgrwt>
</event>
<event>
 6    1  0.1940992E-004  0.3000000E+03  0.7818608E-02  0.1093470E+00
          1   -1    0    0  502    0  0.00000000000E+00  0.00000000000E+00  0.47010656954E+02  0.47010656954E+02  0.00000000000E+00 0.  1.
         13   -1    0    0    0    0 -0.00000000000E+00 -0.00000000000E+00 -0.10000000000E+04  0.10000000000E+04  0.00000000000E+00 0.  1.
    9000005    2    1    2  501    0  0.11519145740E+02 -0.81758470029E+02 -0.86288610215E+03  0.92479882381E+03  0.32227829759E+03 0.  0.
         13    1    3    3    0    0  0.10660603949E+03  0.37759743017E+02 -0.11431441370E+03  0.16080556902E+03  0.00000000000E+00 0.  1.
          3    1    3    3  501    0 -0.95086893754E+02 -0.11951821305E+03 -0.74857168845E+03  0.76399325479E+03  0.00000000000E+00 0.  1.
         21    1    1    2  502  501 -0.11519145740E+02  0.81758470029E+02 -0.90103240897E+02  0.12221183314E+03  0.00000000000E+00 0.  1.
<mgrwt>
<rscale>  1 0.30000000E+03</rscale>
<asrwt>0</asrwt>
<pdfrwt beam="1">  1        1 0.17094820E+00 0.30000000E+03</pdfrwt>
<pdfrwt beam="2">0</pdfrwt>
<totfact> 0.14135646E+01</totfact>
</mgrwt>
</event>
<event>
 6    1  0.1940992E-004  0.3000000E+03  0.7818608E-02  0.1093470E+00
          1   -1    0    0  502    0  0.00000000000E+00  0.00000000000E+00  0.28560620257E+02  0.28560620257E+02  0.00000000000E+00 0.  1.
         13   -1    0    0    0    0 -0.00000000000E+00 -0.00000000000E+00 -0.10000000000E+04  0.10000000000E+04  0.00000000000E+00 0.  1.
    9000005    2    1    2  501    0 -0.38398579356E+01 -0.14369838524E+02 -0.91165242580E+03  0.96695123274E+03  0.32196786216E+03 0.  0.
         13    1    3    3    0    0 -0.14494262946E+03  0.31608752440E+02 -0.26707465661E+03  0.30550998554E+03  0.00000000000E+00 0.  1.
          1    1    3    3  501    0  0.14110277152E+03 -0.45978590964E+02 -0.64457776919E+03  0.66144124720E+03  0.00000000000E+00 0.  1.
         21    1    1    2  502  501  0.38398579356E+01  0.14369838524E+02 -0.59786953943E+02  0.61609387514E+02  0.00000000000E+00 0. -1.
<mgrwt>
<rscale>  1 0.30000000E+03</rscale>
<asrwt>0</asrwt>
<pdfrwt beam="1">  1        1 0.10385702E+00 0.30000000E+03</pdfrwt>
<pdfrwt beam="2">0</pdfrwt>
<totfact> 0.32373795E+01</totfact>
</mgrwt>
</event>
<event>
 6    1  0.1940992E-004  0.3000000E+03  0.7818608E-02  0.1093470E+00
          1   -1    0    0  502    0  0.00000000000E+00  0.00000000000E+00  0.28165325530E+02  0.28165325530E+02  0.00000000000E+00 0.  1.
         13   -1    0    0    0    0 -0.00000000000E+00 -0.00000000000E+00 -0.10000000000E+04  0.10000000000E+04  0.00000000000E+00 0.  1.
    9000005    2    1    2  501    0  0.97294449023E+01 -0.75327908248E+01 -0.92621231189E+03  0.98091275943E+03  0.32275252110E+03 0.  0.
         13    1    3    3    0    0  0.12500399038E+03 -0.22757717133E+02 -0.15242124374E+03  0.19843423808E+03  0.00000000000E+00 0.  1.
          1    1    3    3  501    0 -0.11527454548E+03  0.15224926308E+02 -0.77379106815E+03  0.78247852135E+03  0.00000000000E+00 0.  1.
         21    1    1    2  502  501 -0.97294449023E+01  0.75327908248E+01 -0.45622362580E+02  0.47252566101E+02  0.00000000000E+00 0. -1.
<mgrwt>
<rscale>  1 0.30000000E+03</rscale>
<asrwt>0</asrwt>
<pdfrwt beam="1">  1        1 0.10241958E+00 0.30000000E+03</pdfrwt>
<pdfrwt beam="2">0</pdfrwt>
<totfact> 0.33046874E+01</totfact>
</mgrwt>
</event>
<event>
 6    1  0.1940992E-004  0.3000000E+03  0.7818608E-02  0.1093470E+00
          1   -1    0    0  502    0  0.00000000000E+00  0.00000000000E+00  0.72520252052E+02  0.72520252052E+02  0.00000000000E+00 0.  1.
         13   -1    0    0    0    0 -0.00000000000E+00 -0.00000000000E+00 -0.10000000000E+04  0.10000000000E+04  0.00000000000E+00 0.  1.
    9000005    2    1    2  501    0  0.16013475009E+02  0.23368674995E+02 -0.96912570049E+03  0.10221524874E+04  0.32371060809E+03 0.  0.
         13    1    3    3    0    0  0.16664138650E+03 -0.20018144337E+02 -0.52499431265E+03  0.55117066877E+03  0.00000000000E+00 0.  1.
          1    1    3    3  501    0 -0.15062791149E+03  0.43386819332E+02 -0.44413138784E+03  0.47098181862E+03  0.00000000000E+00 0.  1.
         21    1    1    2  502  501 -0.16013475009E+02 -0.23368674995E+02  0.41645952544E+02  0.50367764653E+02  0.00000000000E+00 0.  1.
<mgrwt>
<rscale>  1 0.30000000E+03</rscale>
<asrwt>0</asrwt>
<pdfrwt beam="1">  1        1 0.26371056E+00 0.30000000E+03</pdfrwt>
<pdfrwt beam="2">0</pdfrwt>
<totfact> 0.51471838E+00</totfact>
</mgrwt>
</event>
<event>
 6    1  0.1940992E-004  0.3000000E+03  0.7818608E-02  0.1093470E+00
          1   -1    0    0  502    0  0.00000000000E+00  0.00000000000E+00  0.55422459360E+02  0.55422459360E+02  0.00000000000E+00 0.  1.
         13   -1    0    0    0    0 -0.00000000000E+00 -0.00000000000E+00 -0.10000000000E+04  0.10000000000E+04  0.00000000000E+00 0.  1.
    9000005    2    1    2  501    0  0.13172339256E+01 -0.17804499549E+02 -0.97310683277E+03  0.10217675070E+04  0.31105175623E+03 0.  0.
         13    1    3    3    0    0  0.80372492833E+01 -0.18749677499E+02  0.20040689089E+02  0.28596800547E+02  0.00000000000E+00 0.  1.
          3    1    3    3  501    0 -0.67200153576E+01  0.94517795065E+00 -0.99314752186E+03  0.99317070645E+03  0.00000000000E+00 0.  1.
         21    1    1    2  502  501 -0.13172339256E+01  0.17804499549E+02  0.28529292130E+02  0.33654952367E+02  0.00000000000E+00 0.  1.
<mgrwt>
<rscale>  1 0.30000000E+03</rscale>
<asrwt>0</asrwt>
<pdfrwt beam="1">  1        1 0.20153664E+00 0.30000000E+03</pdfrwt>
<pdfrwt beam="2">0</pdfrwt>
<totfact> 0.10072642E+01</totfact>
</mgrwt>
</event>
<event>
 6    1  0.1940992E-004  0.3000000E+03  0.7818608E-02  0.1093470E+00
          1   -1    0    0  502    0  0.00000000000E+00  0.00000000000E+00  0.38658210839E+02  0.38658210839E+02  0.00000000000E+00 0.  1.
         13   -1    0    0    0    0 -0.00000000000E+00 -0.00000000000E+00 -0.10000000000E+04  0.10000000000E+04  0.00000000000E+00 0.  1.
    9000005    2    1    2  501    0  0.42895096937E+02 -0.26584613906E+02 -0.91372406766E+03  0.96927392992E+03  0.31945821066E+03 0.  0.
         13    1    3    3    0    0  0.11170347252E+03 -0.14525759220E+03 -0.45614242035E+03  0.49157231565E+03  0.00000000000E+00 0.  1.
          3    1    3    3  501    0 -0.68808375582E+02  0.11867297829E+03 -0.45758164731E+03  0.47770161427E+03  0.00000000000E+00 0.  1.
         21    1    1    2  502  501 -0.42895096937E+02  0.26584613906E+02 -0.47617721500E+02  0.69384280918E+02  0.00000000000E+00 0.  1.
<mgrwt>
<rscale>  1 0.30000000E+03</rscale>
<asrwt>0</asrwt>
<pdfrwt beam="1">  1        1 0.14057561E+00 0.30000000E+03</pdfrwt>
<pdfrwt beam="2">0</pdfrwt>
<totfact> 0.20092240E+01</totfact>
</mgrwt>
</event>
<event>
 6    1  0.1940992E-004  0.3000000E+03  0.7818608E-02  0.1093470E+00
          1   -1    0    0  502    0  0.00000000000E+00  0.00000000000E+00  0.28031727268E+02  0.28031727268E+02  0.00000000000E+00 0.  1.
         13   -1    0    0    0    0 -0.00000000000E+00 -0.00000000000E+00 -0.10000000000E+04  0.10000000000E+04  0.00000000000E+00 0.  1.
    9000005    2    1    2  501    0  0.37099521881E+01  0.81038260217E+01 -0.94711723093E+03  0.10016307799E+04  0.32581242218E+03 0.  0.
         13    1    3    3    0    0  0.73967889905E+02 -0.67742942415E+02 -0.79800186915E+02  0.12817341696E+03  0.00000000000E+00 0.  1.
          1    1    3    3  501    0 -0.70257937717E+02  0.75846768436E+02 -0.86731704402E+03  0.87345736297E+03  0.00000000000E+00 0.  1.
         21    1    1    2  502  501 -0.37099521881E+01 -0.81038260217E+01 -0.24851041801E+02  0.26400947332E+02  0.00000000000E+00 0.  1.
<mgrwt>
<rscale>  1 0.30000000E+03</rscale>
<asrwt>0</asrwt>
<pdfrwt beam="1">  1        1 0.10193377E+00 0.30000000E+03</pdfrwt>
<pdfrwt beam="2">0</pdfrwt>
<totfact> 0.33278976E+01</totfact>
</mgrwt>
</event>
<event>
 6    1  0.1940992E-004  0.3000000E+03  0.7818608E-02  0.1093470E+00
          1   -1    0    0  502    0  0.00000000000E+00  0.00000000000E+00  0.28900678989E+02  0.28900678989E+02  0.00000000000E+00 0.  1.
         13   -1    0    0    0    0 -0.00000000000E+00 -0.00000000000E+00 -0.10000000000E+04  0.10000000000E+04  0.00000000000E+00 0.  1.
    9000005    2    1    2  501    0 -0.95968538155E+01  0.77222189853E+01 -0.94959605683E+03  0.10041191811E+04  0.32614556007E+03 0.  0.
         13    1    3    3    0    0  0.12262870541E+03 -0.94904414398E+02 -0.53477299728E+03  0.55680050816E+03  0.00000000000E+00 0.  1.
          1    1    3    3  501    0 -0.13222555923E+03  0.10262663338E+03 -0.41482305954E+03  0.44731867290E+03  0.00000000000E+00 0.  1.
         21    1    1    2  502  501  0.95968538155E+01 -0.77222189853E+01 -0.21503264182E+02  0.24781497931E+02  0.00000000000E+00 0.  1.
<mgrwt>
<rscale>  1 0.30000000E+03</rscale>
<asrwt>0</asrwt>
<pdfrwt beam="1">  1        1 0.10509360E+00 0.30000000E+03</pdfrwt>
<pdfrwt beam="2">0</pdfrwt>
<totfact> 0.31810596E+01</totfact>
</mgrwt>
</event>
<event>
 6    1  0.1940992E-004  0.3000000E+03  0.7818608E-02  0.1093470E+00
          1   -1    0    0  502    0  0.00000000000E+00  0.00000000000E+00  0.46503120041E+02  0.46503120041E+02  0.00000000000E+00 0.  1.
         13   -1    0    0    0    0 -0.00000000000E+00 -0.00000000000E+00 -0.10000000000E+04  0.10000000000E+04  0.00000000000E+00 0.  1.
    9000005    2    1    2  501    0  0.48532821753E+02  0.84431304833E+02 -0.79078776099E+03  0.85687628275E+03  0.31528970962E+03 0.  0.
         13    1    3    3    0    0  0.82575184865E+01 -0.11887513524E+03 -0.35153487603E+03  0.37118223752E+03  0.00000000000E+00 0.  1.
          1    1    3    3  501    0  0.40275303266E+02  0.20330644007E+03 -0.43925288496E+03  0.48569404523E+03  0.00000000000E+00 0.  1.
         21    1    1    2  502  501 -0.48532821753E+02 -0.84431304833E+02 -0.16270911897E+03  0.18962683729E+03  0.00000000000E+00 0.  1.
<mgrwt>
<rscale>  1 0.30000000E+03</rscale>
<asrwt>0</asrwt>
<pdfrwt beam="1">  1        1 0.16910261E+00 0.30000000E+03</pdfrwt>
<pdfrwt beam="2">0</pdfrwt>
<totfact> 0.14432303E+01</totfact>
</mgrwt>
</event>
<event>
 6    1  0.1940992E-004  0.3000000E+03  0.7818608E-02  0.1093470E+00
          1   -1    0    0  502    0  0.00000000000E+00  0.00000000000E+00  0.33246720547E+02  0.33246720547E+02  0.00000000000E+00 0.  1.
         13   -1    0    0    0    0 -0.00000000000E+00 -0.00000000000E+00 -0.10000000000E+04  0.10000000000E+04  0.00000000000E+00 0.  1.
    9000005    2    1    2  501    0 -0.70695598167E+01  0.96927339590E+01 -0.96051764489E+03  0.10197259622E+04  0.34220310357E+03 0.  0.
         13    1    3    3    0    0 -0.72638990513E+02  0.25307928959E+02 -0.23704447528E+02  0.80491086734E+02  0.00000000000E+00 0.  1.
          3    1    3    3  501    0  0.65569430696E+02 -0.15615195000E+02 -0.93681319737E+03  0.93923487548E+03  0.00000000000E+00 0.  1.
         21    1    1    2  502  501  0.70695598167E+01 -0.96927339590E+01 -0.62356345600E+01  0.13520758336E+02  0.00000000000E+00 0.  1.
<mgrwt>
<rscale>  1 0.30000000E+03</rscale>
<asrwt>0</asrwt>
<pdfrwt beam="1">  1        1 0.12089742E+00 0.30000000E+03</pdfrwt>
<pdfrwt beam="2">0</pdfrwt>
<totfact> 0.25694647E+01</totfact>
</mgrwt>
</event>
<event>
 6    1  0.1940992E-004  0.3000000E+03  0.7818608E-02  0.1093470E+00
          1   -1    0    0  502    0  0.00000000000E+00  0.00000000000E+00  0.32833493291E+02  0.32833493291E+02  0.00000000000E+00 0.  1.
         13   -1    0    0    0    0 -0.00000000000E+00 -0.00000000000E+00 -0.10000000000E+04  0.10000000000E+04  0.00000000000E+00 0.  1.
    9000005    2    1    2  501    0 -0.38425647029E+01 -0.10489552440E+02 -0.97406312968E+03  0.10197049205E+04  0.30145372508E+03 0.  0.
         13    1    3    3    0    0  0.10335824545E+03  0.49322093686E+02 -0.16186550047E+03  0.19828271753E+03  0.00000000000E+00 0.  1.
          3    1    3    3  501    0 -0.10720081015E+03 -0.59811646126E+02 -0.81219762921E+03  0.82142220302E+03  0.00000000000E+00 0.  1.
         21    1    1    2  502  501  0.38425647029E+01  0.10489552440E+02  0.68966229735E+01  0.13128572746E+02  0.00000000000E+00 0. -1.
<mgrwt>
<rscale>  1 0.30000000E+03</rscale>
<asrwt>0</asrwt>
<pdfrwt beam="1">  1        1 0.11939477E+00 0.30000000E+03</pdfrwt>
<pdfrwt beam="2">0</pdfrwt>
<totfact> 0.26201947E+01</totfact>
</mgrwt>
</event>
<event>
 6    1  0.1940992E-004  0.3000000E+03  0.7818608E-02  0.1093470E+00
          1   -1    0    0  502    0  0.00000000000E+00  0.00000000000E+00  0.31245097920E+02  0.31245097920E+02  0.00000000000E+00 0.  1.
         13   -1    0    0    0    0 -0.00000000000E+00 -0.00000000000E+00 -0.10000000000E+04  0.10000000000E+04  0.00000000000E+00 0.  1.
    9000005    2    1    2  501    0 -0.97961978255E+01  0.82487928071E+01 -0.96436354855E+03  0.10177065581E+04  0.32490856646E+03 0.  0.
         13    1    3    3    0    0  0.88120105910E+02  0.97164602715E+02 -0.77915621829E+03  0.79012057661E+03  0.00000000000E+00 0.  1.
          3    1    3    3  501    0 -0.97916303736E+02 -0.88915809908E+02 -0.18520733026E+03  0.22758598149E+03  0.00000000000E+00 0.  1.
         21    1    1    2  502  501  0.97961978255E+01 -0.82487928071E+01 -0.43913535307E+01  0.13538539819E+02  0.00000000000E+00 0.  1.
<mgrwt>
<rscale>  1 0.30000000E+03</rscale>
<asrwt>0</asrwt>
<pdfrwt beam="1">  1        1 0.11361878E+00 0.30000000E+03</pdfrwt>
<pdfrwt beam="2">0</pdfrwt>
<totfact> 0.28284519E+01</totfact>
</mgrwt>
</event>
<event>
 6    1  0.1940992E-004  0.3000000E+03  0.7818608E-02  0.1093470E+00
          1   -1    0    0  502    0  0.00000000000E+00  0.00000000000E+00  0.64318464605E+02  0.64318464605E+02  0.00000000000E+00 0.  1.
         13   -1    0    0    0    0 -0.00000000000E+00 -0.00000000000E+00 -0.10000000000E+04  0.10000000000E+04  0.00000000000E+00 0.  1.
    9000005    2    1    2  501    0  0.60388385331E+02 -0.25955386197E+02 -0.94262143906E+03  0.99822306826E+03  0.32185971705E+03 0.  0.
         13    1    3    3    0    0  0.75285933397E+02 -0.87867895735E+02 -0.92491894426E+03  0.93212863507E+03  0.00000000000E+00 0.  1.
          3    1    3    3  501    0 -0.14897548066E+02  0.61912509538E+02 -0.17702494802E+02  0.66094433184E+02  0.00000000000E+00 0.  1.
         21    1    1    2  502  501 -0.60388385331E+02  0.25955386197E+02  0.69399036691E+01  0.66095396348E+02  0.00000000000E+00 0.  1.
<mgrwt>
<rscale>  1 0.30000000E+03</rscale>
<asrwt>0</asrwt>
<pdfrwt beam="1">  1        1 0.23388582E+00 0.30000000E+03</pdfrwt>
<pdfrwt beam="2">0</pdfrwt>
<totfact> 0.70969372E+00</totfact>
</mgrwt>
</event>
<event>
 6    1  0.1940992E-004  0.3000000E+03  0.7818608E-02  0.1093470E+00
          1   -1    0    0  502    0  0.00000000000E+00  0.00000000000E+00  0.36479128585E+02  0.36479128585E+02  0.00000000000E+00 0.  1.
         13   -1    0    0    0    0 -0.00000000000E+00 -0.00000000000E+00 -0.10000000000E+04  0.10000000000E+04  0.00000000000E+00 0.  1.
    9000005    2    1    2  501    0  0.56691781657E+01 -0.86729137173E+01 -0.96166759549E+03  0.10259532726E+04  0.35730686287E+03 0.  0.
         13    1    3    3    0    0 -0.13602994629E+03  0.87002077892E+02 -0.65738397602E+03  0.67692481102E+03  0.00000000000E+00 0.  1.
          3    1    3    3  501    0  0.14169912445E+03 -0.95674991609E+02 -0.30428361947E+03  0.34902846154E+03  0.00000000000E+00 0.  1.
         21    1    1    2  502  501 -0.56691781657E+01  0.86729137173E+01 -0.18532759284E+01  0.10525856026E+02  0.00000000000E+00 0. -1.
<mgrwt>
<rscale>  1 0.30000000E+03</rscale>
<asrwt>0</asrwt>
<pdfrwt beam="1">  1        1 0.13265166E+00 0.30000000E+03</pdfrwt>
<pdfrwt beam="2">0</pdfrwt>
<totfact> 0.22135370E+01</totfact>
</mgrwt>
</event>
<event>
 6    1  0.1940992E-004  0.3000000E+03  0.7818608E-02  0.1093470E+00
          1   -1    0    0  502    0  0.00000000000E+00  0.00000000000E+00  0.30272973679E+02  0.30272973679E+02  0.00000000000E+00 0.  1.
         13   -1    0    0    0    0 -0.00000000000E+00 -0.00000000000E+00 -0.10000000000E+04  0.10000000000E+04  0.00000000000E+00 0.  1.
    9000005    2    1    2  501    0  0.90370242226E+01  0.79190186397E+01 -0.95917943264E+03  0.10142845280E+04  0.32955051367E+03 0.  0.
         13    1    3    3    0    0 -0.98299544552E+02 -0.12453803536E+03 -0.49356807078E+03  0.51844186096E+03  0.00000000000E+00 0.  1.
          1    1    3    3  501    0  0.10733656878E+03  0.13245705400E+03 -0.46561136186E+03  0.49584266703E+03  0.00000000000E+00 0.  1.
         21    1    1    2  502  501 -0.90370242226E+01 -0.79190186397E+01 -0.10547593682E+02  0.15988445687E+02  0.00000000000E+00 0. -1.
<mgrwt>
<rscale>  1 0.30000000E+03</rscale>
<asrwt>0</asrwt>
<pdfrwt beam="1">  1        1 0.11008377E+00 0.30000000E+03</pdfrwt>
<pdfrwt beam="2">0</pdfrwt>
<totfact> 0.29675512E+01</totfact>
</mgrwt>
</event>
<event>
 6    1  0.1940992E-004  0.3000000E+03  0.7818608E-02  0.1093470E+00
          1   -1    0    0  502    0  0.00000000000E+00  0.00000000000E+00  0.21813101596E+02  0.21813101596E+02  0.00000000000E+00 0.  1.
         13   -1    0    0    0    0 -0.00000000000E+00 -0.00000000000E+00 -0.10000000000E+04  0.10000000000E+04  0.00000000000E+00 0.  1.
    9000005    2    1    2  501    0 -0.11731491309E+02 -0.24031152580E+02 -0.96550409405E+03  0.99221618100E+03  0.22711158054E+03 0.  0.
         13    1    3    3    0    0 -0.58072436959E+02  0.75589310677E+02 -0.23663183639E+03  0.25510934482E+03  0.00000000000E+00 0.  1.
          1    1    3    3  501    0  0.46340945651E+02 -0.99620463257E+02 -0.72887225766E+03  0.73710683617E+03  0.00000000000E+00 0.  1.
         21    1    1    2  502  501  0.11731491309E+02  0.24031152580E+02 -0.12682804350E+02  0.29596920597E+02  0.00000000000E+00 0.  1.
<mgrwt>
<rscale>  1 0.30000000E+03</rscale>
<asrwt>0</asrwt>
<pdfrwt beam="1">  1        1 0.79320537E-01 0.30000000E+03</pdfrwt>
<pdfrwt beam="2">0</pdfrwt>
<totfact> 0.47522535E+01</totfact>
</mgrwt>
</event>
<event>
 6    1  0.1940992E-004  0.3000000E+03  0.7818608E-02  0.1093470E+00
          1   -1    0    0  502    0  0.00000000000E+00  0.00000000000E+00  0.29348375231E+02  0.29348375231E+02  0.00000000000E+00 0.  1.
         13   -1    0    0    0    0 -0.00000000000E+00 -0.00000000000E+00 -0.10000000000E+04  0.10000000000E+04  0.00000000000E+00 0.  1.
    9000005    2    1    2  501    0 -0.61952346738E+01 -0.91005046658E+01 -0.96491090305E+03  0.10169324176E+04  0.32090074952E+03 0.  0.
         13    1    3    3    0    0 -0.12874247341E+03 -0.11966172142E+02 -0.80565105080E+03  0.81596043372E+03  0.00000000000E+00 0.  1.
          1    1    3    3  501    0  0.12254723873E+03  0.28656674766E+01 -0.15925985225E+03  0.20097198389E+03  0.00000000000E+00 0.  1.
         21    1    1    2  502  501  0.61952346738E+01  0.91005046658E+01 -0.57407217238E+01  0.12415957625E+02  0.00000000000E+00 0.  1.
<mgrwt>
<rscale>  1 0.30000000E+03</rscale>
<asrwt>0</asrwt>
<pdfrwt beam="1">  1        1 0.10672159E+00 0.30000000E+03</pdfrwt>
<pdfrwt beam="2">0</pdfrwt>
<totfact> 0.31090488E+01</totfact>
</mgrwt>
</event>
<event>
 6    1  0.1940992E-004  0.3000000E+03  0.7818608E-02  0.1093470E+00
          1   -1    0    0  502    0  0.00000000000E+00  0.00000000000E+00  0.33634826606E+02  0.33634826606E+02  0.00000000000E+00 0.  1.
         13   -1    0    0    0    0 -0.00000000000E+00 -0.00000000000E+00 -0.10000000000E+04  0.10000000000E+04  0.00000000000E+00 0.  1.
    9000005    2    1    2  501    0 -0.64068485641E+01 -0.12884527160E+02 -0.95721388493E+03  0.10165818260E+04  0.34201334583E+03 0.  0.
         13    1    3    3    0    0 -0.16023410355E+03 -0.66765078367E+02 -0.58580592272E+03  0.61098373360E+03  0.00000000000E+00 0.  1.
          3    1    3    3  501    0  0.15382725499E+03  0.53880551207E+02 -0.37140796221E+03  0.40559809241E+03  0.00000000000E+00 0.  1.
         21    1    1    2  502  501  0.64068485641E+01  0.12884527160E+02 -0.91512884626E+01  0.17053000592E+02  0.00000000000E+00 0. -1.
<mgrwt>
<rscale>  1 0.30000000E+03</rscale>
<asrwt>0</asrwt>
<pdfrwt beam="1">  1        1 0.12230872E+00 0.30000000E+03</pdfrwt>
<pdfrwt beam="2">0</pdfrwt>
<totfact> 0.25230010E+01</totfact>
</mgrwt>
</event>
<event>
 6    1  0.1940992E-004  0.3000000E+03  0.7818608E-02  0.1093470E+00
          1   -1    0    0  502    0  0.00000000000E+00  0.00000000000E+00  0.32120294442E+02  0.32120294442E+02  0.00000000000E+00 0.  1.
         13   -1    0    0    0    0 -0.00000000000E+00 -0.00000000000E+00 -0.10000000000E+04  0.10000000000E+04  0.00000000000E+00 0.  1.
    9000005    2    1    2  501    0  0.13472866672E+02  0.35317671172E+01 -0.97168963230E+03  0.10176805210E+04  0.30215709455E+03 0.  0.
         13    1    3    3    0    0  0.81525348164E+00 -0.14579671853E+03 -0.37206821144E+03  0.39961494184E+03  0.00000000000E+00 0.  1.
          3    1    3    3  501    0  0.12657613190E+02  0.14932848565E+03 -0.59962142085E+03  0.61806557916E+03  0.00000000000E+00 0.  1.
         21    1    1    2  502  501 -0.13472866672E+02 -0.35317671172E+01  0.38099267398E+01  0.14439773443E+02  0.00000000000E+00 0.  1.
<mgrwt>
<rscale>  1 0.30000000E+03</rscale>
<asrwt>0</asrwt>
<pdfrwt beam="1">  1        1 0.11680132E+00 0.30000000E+03</pdfrwt>
<pdfrwt beam="2">0</pdfrwt>
<totfact> 0.27109860E+01</totfact>
</mgrwt>
</event>
<event>
 6    1  0.1940992E-004  0.3000000E+03  0.7818608E-02  0.1093470E+00
          1   -1    0    0  502    0  0.00000000000E+00  0.00000000000E+00  0.30938683075E+02  0.30938683075E+02  0.00000000000E+00 0.  1.
         13   -1    0    0    0    0 -0.00000000000E+00 -0.00000000000E+00 -0.10000000000E+04  0.10000000000E+04  0.00000000000E+00 0.  1.
    9000005    2    1    2  501    0  0.23499846190E+02  0.17874762240E+02 -0.90930668967E+03  0.96428761126E+03  0.31959379132E+03 0.  0.
         13    1    3    3    0    0 -0.19528785569E+02 -0.14092210841E+03 -0.28321672953E+03  0.31694184008E+03  0.00000000000E+00 0.  1.
          1    1    3    3  501    0  0.43028631759E+02  0.15879687065E+03 -0.62608996014E+03  0.64734577118E+03  0.00000000000E+00 0.  1.
         21    1    1    2  502  501 -0.23499846190E+02 -0.17874762240E+02 -0.59754627251E+02  0.66651071814E+02  0.00000000000E+00 0.  1.
<mgrwt>
<rscale>  1 0.30000000E+03</rscale>
<asrwt>0</asrwt>
<pdfrwt beam="1">  1        1 0.11250454E+00 0.30000000E+03</pdfrwt>
<pdfrwt beam="2">0</pdfrwt>
<totfact> 0.28712772E+01</totfact>
</mgrwt>
</event>
<event>
 6    1  0.1940992E-004  0.3000000E+03  0.7818608E-02  0.1093470E+00
          1   -1    0    0  502    0  0.00000000000E+00  0.00000000000E+00  0.32496096068E+02  0.32496096068E+02  0.00000000000E+00 0.  1.
         13   -1    0    0    0    0 -0.00000000000E+00 -0.00000000000E+00 -0.10000000000E+04  0.10000000000E+04  0.00000000000E+00 0.  1.
    9000005    2    1    2  501    0 -0.22621185724E+02 -0.17520323190E+02 -0.93923947016E+03  0.99227722009E+03  0.31878616570E+03 0.  0.
         13    1    3    3    0    0 -0.10183317152E+03  0.50279490689E+02 -0.84225933410E+03  0.84988164345E+03  0.00000000000E+00 0.  1.
          3    1    3    3  501    0  0.79211985795E+02 -0.67799813879E+02 -0.96980136059E+02  0.14239557664E+03  0.00000000000E+00 0.  1.
         21    1    1    2  502  501  0.22621185724E+02  0.17520323190E+02 -0.28264433777E+02  0.40218875979E+02  0.00000000000E+00 0. -1.
<mgrwt>
<rscale>  1 0.30000000E+03</rscale>
<asrwt>0</asrwt>
<pdfrwt beam="1">  1        1 0.11816787E+00 0.30000000E+03</pdfrwt>
<pdfrwt beam="2">0</pdfrwt>
<totfact> 0.26626205E+01</totfact>
</mgrwt>
</event>
<event>
 6    1  0.1940992E-004  0.3000000E+03  0.7818608E-02  0.1093470E+00
          1   -1    0    0  502    0  0.00000000000E+00  0.00000000000E+00  0.29378262936E+02  0.29378262936E+02  0.00000000000E+00 0.  1.
         13   -1    0    0    0    0 -0.00000000000E+00 -0.00000000000E+00 -0.10000000000E+04  0.10000000000E+04  0.00000000000E+00 0.  1.
    9000005    2    1    2  501    0  0.24767901927E+02  0.10305770760E+02 -0.96000692632E+03  0.10005280968E+04  0.28057711257E+03 0.  0.
         13    1    3    3    0    0  0.10607651434E+03  0.97508628657E+02 -0.34178216073E+03  0.37091131683E+03  0.00000000000E+00 0.  1.
          1    1    3    3  501    0 -0.81308612415E+02 -0.87202857898E+02 -0.61822476559E+03  0.62961678001E+03  0.00000000000E+00 0.  1.
         21    1    1    2  502  501 -0.24767901927E+02 -0.10305770760E+02 -0.10614810741E+02  0.28850166098E+02  0.00000000000E+00 0. -1.
<mgrwt>
<rscale>  1 0.30000000E+03</rscale>
<asrwt>0</asrwt>
<pdfrwt beam="1">  1        1 0.10683027E+00 0.30000000E+03</pdfrwt>
<pdfrwt beam="2">0</pdfrwt>
<totfact> 0.31043253E+01</totfact>
</mgrwt>
</event>
<event>
 6    1  0.1940992E-004  0.3000000E+03  0.7818608E-02  0.1093470E+00
          1   -1    0    0  502    0  0.00000000000E+00  0.00000000000E+00  0.35019165331E+02  0.35019165331E+02  0.00000000000E+00 0.  1.
         13   -1    0    0    0    0 -0.00000000000E+00 -0.00000000000E+00 -0.10000000000E+04  0.10000000000E+04  0.00000000000E+00 0.  1.
    9000005    2    1    2  501    0 -0.78893126451E+01  0.30906413616E+02 -0.92758181216E+03  0.98586497384E+03  0.33242184154E+03 0.  0.
         13    1    3    3    0    0  0.92010286638E+02 -0.38252434368E+02 -0.81225539286E+03  0.81834464916E+03  0.00000000000E+00 0.  1.
          3    1    3    3  501    0 -0.99899599283E+02  0.69158847984E+02 -0.11532641931E+03  0.16752032468E+03  0.00000000000E+00 0.  1.
         21    1    1    2  502  501  0.78893126451E+01 -0.30906413616E+02 -0.37399022505E+02  0.49154191489E+02  0.00000000000E+00 0. -1.
<mgrwt>
<rscale>  1 0.30000000E+03</rscale>
<asrwt>0</asrwt>
<pdfrwt beam="1">  1        1 0.12734269E+00 0.30000000E+03</pdfrwt>
<pdfrwt beam="2">0</pdfrwt>
<totfact> 0.23658755E+01</totfact>
</mgrwt>
</event>
<event>
 6    1  0.1940992E-004  0.3000000E+03  0.7818608E-02  0.1093470E+00
          1   -1    0    0  502    0  0.00000000000E+00  0.00000000000E+00  0.35346957985E+02  0.35346957985E+02  0.00000000000E+00 0.  1.
         13   -1    0    0    0    0 -0.00000000000E+00 -0.00000000000E+00 -0.10000000000E+04  0.10000000000E+04  0.00000000000E+00 0.  1.
    9000005    2    1    2  501    0 -0.30887786403E+02  0.17174892546E+02 -0.92385060100E+03  0.98136667014E+03  0.32913762473E+03 0.  0.
         13    1    3    3    0    0  0.36899183315E+01  0.10259146612E+03 -0.74034630610E+02  0.12656915480E+03  0.00000000000E+00 0.  1.
          3    1    3    3  501    0 -0.34577704735E+02 -0.85416573570E+02 -0.84981597039E+03  0.85479751534E+03  0.00000000000E+00 0.  1.
         21    1    1    2  502  501  0.30887786403E+02 -0.17174892546E+02 -0.40802441016E+02  0.53980287844E+02  0.00000000000E+00 0. -1.
<mgrwt>
<rscale>  1 0.30000000E+03</rscale>
<asrwt>0</asrwt>
<pdfrwt beam="1">  1        1 0.12853466E+00 0.30000000E+03</pdfrwt>
<pdfrwt beam="2">0</pdfrwt>
<totfact> 0.23305166E+01</totfact>
</mgrwt>
</event>
<event>
 6    1  0.1940992E-004  0.3000000E+03  0.7818608E-02  0.1093470E+00
          1   -1    0    0  502    0  0.00000000000E+00  0.00000000000E+00  0.40799249201E+02  0.40799249201E+02  0.00000000000E+00 0.  1.
         13   -1    0    0    0    0 -0.00000000000E+00 -0.00000000000E+00 -0.10000000000E+04  0.10000000000E+04  0.00000000000E+00 0.  1.
    9000005    2    1    2  501    0 -0.15467082516E+02  0.56052720055E+01 -0.96898002706E+03  0.10216607028E+04  0.32341559796E+03 0.  0.
         13    1    3    3    0    0  0.68591940086E+02 -0.36360590889E+01 -0.92271260084E+03  0.92526570180E+03  0.00000000000E+00 0.  1.
          3    1    3    3  501    0 -0.84059022602E+02  0.92413310943E+01 -0.46267426214E+02  0.96395000958E+02  0.00000000000E+00 0.  1.
         21    1    1    2  502  501  0.15467082516E+02 -0.56052720055E+01  0.97792762589E+01  0.19138546444E+02  0.00000000000E+00 0.  1.
<mgrwt>
<rscale>  1 0.30000000E+03</rscale>
<asrwt>0</asrwt>
<pdfrwt beam="1">  1        1 0.14836122E+00 0.30000000E+03</pdfrwt>
<pdfrwt beam="2">0</pdfrwt>
<totfact> 0.18313797E+01</totfact>
</mgrwt>
</event>
<event>
 6    1  0.1940992E-004  0.3000000E+03  0.7818608E-02  0.1093470E+00
          1   -1    0    0  502    0  0.00000000000E+00  0.00000000000E+00  0.46567787325E+02  0.46567787325E+02  0.00000000000E+00 0.  1.
         13   -1    0    0    0    0 -0.00000000000E+00 -0.00000000000E+00 -0.10000000000E+04  0.10000000000E+04  0.00000000000E+00 0.  1.
    9000005    2    1    2  501    0  0.19142437126E+01 -0.12081602775E+02 -0.97012887654E+03  0.10258697672E+04  0.33333033555E+03 0.  0.
         13    1    3    3    0    0 -0.32181798272E+02 -0.56238645525E+02 -0.11730170675E+02  0.65848692429E+02  0.00000000000E+00 0.  1.
          1    1    3    3  501    0  0.34096041984E+02  0.44157042750E+02 -0.95839870587E+03  0.96002107473E+03  0.00000000000E+00 0.  1.
         21    1    1    2  502  501 -0.19142437126E+01  0.12081602775E+02  0.16696663870E+02  0.20698020171E+02  0.00000000000E+00 0.  1.
<mgrwt>
<rscale>  1 0.30000000E+03</rscale>
<asrwt>0</asrwt>
<pdfrwt beam="1">  1        1 0.16933777E+00 0.30000000E+03</pdfrwt>
<pdfrwt beam="2">0</pdfrwt>
<totfact> 0.14394118E+01</totfact>
</mgrwt>
</event>
<event>
 6    1  0.1940992E-004  0.3000000E+03  0.7818608E-02  0.1093470E+00
          1   -1    0    0  502    0  0.00000000000E+00  0.00000000000E+00  0.10413553199E+03  0.10413553199E+03  0.00000000000E+00 0.  1.
         13   -1    0    0    0    0 -0.00000000000E+00 -0.00000000000E+00 -0.10000000000E+04  0.10000000000E+04  0.00000000000E+00 0.  1.
    9000005    2    1    2  501    0 -0.94325139559E+02  0.59622570290E+02 -0.92679689084E+03  0.98833873746E+03  0.32466736861E+03 0.  0.
         13    1    3    3    0    0  0.60421766748E+02 -0.79734809973E+02 -0.12588670607E+03  0.16079767592E+03  0.00000000000E+00 0.  1.
          1    1    3    3  501    0 -0.15474690631E+03  0.13935738026E+03 -0.80091018478E+03  0.82754106154E+03  0.00000000000E+00 0.  1.
         21    1    1    2  502  501  0.94325139559E+02 -0.59622570290E+02  0.30932422830E+02  0.11579679453E+03  0.00000000000E+00 0.  1.
<mgrwt>
<rscale>  1 0.30000000E+03</rscale>
<asrwt>0</asrwt>
<pdfrwt beam="1">  1        1 0.37867546E+00 0.30000000E+03</pdfrwt>
<pdfrwt beam="2">0</pdfrwt>
<totfact> 0.13853079E+00</totfact>
</mgrwt>
</event>
<event>
 6    1  0.1940992E-004  0.3000000E+03  0.7818608E-02  0.1093470E+00
          1   -1    0    0  502    0  0.00000000000E+00  0.00000000000E+00  0.32824764289E+02  0.32824764289E+02  0.00000000000E+00 0.  1.
         13   -1    0    0    0    0 -0.00000000000E+00 -0.00000000000E+00 -0.10000000000E+04  0.10000000000E+04  0.00000000000E+00 0.  1.
    9000005    2    1    2  501    0  0.55914884419E+01 -0.16687454438E+02 -0.96026312446E+03  0.10139167459E+04  0.32498025090E+03 0.  0.
         13    1    3    3    0    0 -0.10643605315E+03  0.96454244661E+02 -0.27334553928E+03  0.30878769174E+03  0.00000000000E+00 0.  1.
          3    1    3    3  501    0  0.11202754159E+03 -0.11314169910E+03 -0.68691758518E+03  0.70512905413E+03  0.00000000000E+00 0.  1.
         21    1    1    2  502  501 -0.55914884419E+01  0.16687454438E+02 -0.69121112485E+01  0.18908018419E+02  0.00000000000E+00 0. -1.
<mgrwt>
<rscale>  1 0.30000000E+03</rscale>
<asrwt>0</asrwt>
<pdfrwt beam="1">  1        1 0.11936303E+00 0.30000000E+03</pdfrwt>
<pdfrwt beam="2">0</pdfrwt>
<totfact> 0.26212808E+01</totfact>
</mgrwt>
</event>
<event>
 6    1  0.1940992E-004  0.3000000E+03  0.7818608E-02  0.1093470E+00
          1   -1    0    0  502    0  0.00000000000E+00  0.00000000000E+00  0.46871706980E+02  0.46871706980E+02  0.00000000000E+00 0.  1.
         13   -1    0    0    0    0 -0.00000000000E+00 -0.00000000000E+00 -0.10000000000E+04  0.10000000000E+04  0.00000000000E+00 0.  1.
    9000005    2    1    2  501    0 -0.72962657394E+00 -0.13928776995E+02 -0.97130250740E+03  0.10239622056E+04  0.32384486179E+03 0.  0.
         13    1    3    3    0    0 -0.94355477670E+02  0.12404735991E+03 -0.41947761137E+03  0.44749544144E+03  0.00000000000E+00 0.  1.
          3    1    3    3  501    0  0.93625851096E+02 -0.13797613691E+03 -0.55182489603E+03  0.57646676420E+03  0.00000000000E+00 0.  1.
         21    1    1    2  502  501  0.72962657394E+00  0.13928776995E+02  0.18174214379E+02  0.22909501344E+02  0.00000000000E+00 0.  1.
<mgrwt>
<rscale>  1 0.30000000E+03</rscale>
<asrwt>0</asrwt>
<pdfrwt beam="1">  1        1 0.17044293E+00 0.30000000E+03</pdfrwt>
<pdfrwt beam="2">0</pdfrwt>
<totfact> 0.14216176E+01</totfact>
</mgrwt>
</event>
<event>
 6    1  0.1940992E-004  0.3000000E+03  0.7818608E-02  0.1093470E+00
          1   -1    0    0  502    0  0.00000000000E+00  0.00000000000E+00  0.37191055588E+02  0.37191055588E+02  0.00000000000E+00 0.  1.
         13   -1    0    0    0    0 -0.00000000000E+00 -0.00000000000E+00 -0.10000000000E+04  0.10000000000E+04  0.00000000000E+00 0.  1.
    9000005    2    1    2  501    0 -0.15726449854E+01  0.15081005198E+02 -0.94484824981E+03  0.10136858119E+04  0.36686618835E+03 0.  0.
         13    1    3    3    0    0 -0.14445758909E+03 -0.31807055873E+02 -0.76537727016E+03  0.77953963948E+03  0.00000000000E+00 0.  1.
          3    1    3    3  501    0  0.14288494410E+03  0.46888061070E+02 -0.17947097965E+03  0.23414617242E+03  0.00000000000E+00 0.  1.
         21    1    1    2  502  501  0.15726449854E+01 -0.15081005198E+02 -0.17960694605E+02  0.23505243686E+02  0.00000000000E+00 0. -1.
<mgrwt>
<rscale>  1 0.30000000E+03</rscale>
<asrwt>0</asrwt>
<pdfrwt beam="1">  1        1 0.13524049E+00 0.30000000E+03</pdfrwt>
<pdfrwt beam="2">0</pdfrwt>
<totfact> 0.21439063E+01</totfact>
</mgrwt>
</event>
<event>
 6    1  0.1940992E-004  0.3000000E+03  0.7818608E-02  0.1093470E+00
          1   -1    0    0  502    0  0.00000000000E+00  0.00000000000E+00  0.30875706934E+02  0.30875706934E+02  0.00000000000E+00 0.  1.
         13   -1    0    0    0    0 -0.00000000000E+00 -0.00000000000E+00 -0.10000000000E+04  0.10000000000E+04  0.00000000000E+00 0.  1.
    9000005    2    1    2  501    0  0.21864741764E+02  0.20117023219E+02 -0.93379060191E+03  0.98471044633E+03  0.31113825440E+03 0.  0.
         13    1    3    3    0    0 -0.59441681440E+02 -0.83118014262E+02 -0.75995994662E+03  0.76679921639E+03  0.00000000000E+00 0.  1.
          1    1    3    3  501    0  0.81306423204E+02  0.10323503748E+03 -0.17383065529E+03  0.21791122994E+03  0.00000000000E+00 0.  1.
         21    1    1    2  502  501 -0.21864741764E+02 -0.20117023219E+02 -0.35333691161E+02  0.46165260604E+02  0.00000000000E+00 0.  1.
<mgrwt>
<rscale>  1 0.30000000E+03</rscale>
<asrwt>0</asrwt>
<pdfrwt beam="1">  1        1 0.11227553E+00 0.30000000E+03</pdfrwt>
<pdfrwt beam="2">0</pdfrwt>
<totfact> 0.28801937E+01</totfact>
</mgrwt>
</event>
<event>
 6    1  0.1940992E-004  0.3000000E+03  0.7818608E-02  0.1093470E+00
          1   -1    0    0  502    0  0.00000000000E+00  0.00000000000E+00  0.46888764288E+02  0.46888764288E+02  0.00000000000E+00 0.  1.
         13   -1    0    0    0    0 -0.00000000000E+00 -0.00000000000E+00 -0.10000000000E+04  0.10000000000E+04  0.00000000000E+00 0.  1.
    9000005    2    1    2  501    0  0.15026658829E+02 -0.11494563187E+01 -0.96927848401E+03  0.10247866910E+04  0.33235502220E+03 0.  0.
         13    1    3    3    0    0 -0.14383704586E+03 -0.59010364945E+02 -0.57795411033E+03  0.59850001887E+03  0.00000000000E+00 0.  1.
          3    1    3    3  501    0  0.15886370469E+03  0.57860908626E+02 -0.39132437368E+03  0.42628667215E+03  0.00000000000E+00 0.  1.
         21    1    1    2  502  501 -0.15026658829E+02  0.11494563187E+01  0.16167248302E+02  0.22102073275E+02  0.00000000000E+00 0. -1.
<mgrwt>
<rscale>  1 0.30000000E+03</rscale>
<asrwt>0</asrwt>
<pdfrwt beam="1">  1        1 0.17050496E+00 0.30000000E+03</pdfrwt>
<pdfrwt beam="2">0</pdfrwt>
<totfact> 0.14206262E+01</totfact>
</mgrwt>
</event>
<event>
 6    1  0.1940992E-004  0.3000000E+03  0.7818608E-02  0.1093470E+00
          1   -1    0    0  502    0  0.00000000000E+00  0.00000000000E+00  0.55731501876E+02  0.55731501876E+02  0.00000000000E+00 0.  1.
         13   -1    0    0    0    0 -0.00000000000E+00 -0.00000000000E+00 -0.10000000000E+04  0.10000000000E+04  0.00000000000E+00 0.  1.
    9000005    2    1    2  501    0 -0.57822621588E+01 -0.83722715185E+01 -0.98805346945E+03  0.10107798256E+04  0.21289121132E+03 0.  0.
         13    1    3    3    0    0  0.43463162254E+02 -0.91128119924E+02 -0.31269632799E+03  0.32859150058E+03  0.00000000000E+00 0.  1.
          3    1    3    3  501    0 -0.49245424413E+02  0.82755848405E+02 -0.67535714146E+03  0.68218832502E+03  0.00000000000E+00 0.  1.
         21    1    1    2  502  501  0.57822621588E+01  0.83722715185E+01  0.43784971327E+02  0.44951676278E+02  0.00000000000E+00 0.  1.
<mgrwt>
<rscale>  1 0.30000000E+03</rscale>
<asrwt>0</asrwt>
<pdfrwt beam="1">  1        1 0.20266043E+00 0.30000000E+03</pdfrwt>
<pdfrwt beam="2">0</pdfrwt>
<totfact> 0.99496624E+00</totfact>
</mgrwt>
</event>
<event>
 6    1  0.1940992E-004  0.3000000E+03  0.7818608E-02  0.1093470E+00
          1   -1    0    0  502    0  0.00000000000E+00  0.00000000000E+00  0.28221054891E+02  0.28221054891E+02  0.00000000000E+00 0.  1.
         13   -1    0    0    0    0 -0.00000000000E+00 -0.00000000000E+00 -0.10000000000E+04  0.10000000000E+04  0.00000000000E+00 0.  1.
    9000005    2    1    2  501    0  0.28292474397E+01  0.82110079944E+01 -0.94599187396E+03  0.10010107934E+04  0.32717970224E+03 0.  0.
         13    1    3    3    0    0  0.99833800402E+02 -0.43097589206E+02 -0.99363443612E+02  0.14729997904E+03  0.00000000000E+00 0.  1.
          3    1    3    3  501    0 -0.97004552963E+02  0.51308597200E+02 -0.84662843035E+03  0.85371081434E+03  0.00000000000E+00 0.  1.
         21    1    1    2  502  501 -0.28292474397E+01 -0.82110079944E+01 -0.25787071148E+02  0.27210261515E+02  0.00000000000E+00 0.  1.
<mgrwt>
<rscale>  1 0.30000000E+03</rscale>
<asrwt>0</asrwt>
<pdfrwt beam="1">  1        1 0.10262223E+00 0.30000000E+03</pdfrwt>
<pdfrwt beam="2">0</pdfrwt>
<totfact> 0.32950754E+01</totfact>
</mgrwt>
</event>
<event>
 6    1  0.1940992E-004  0.3000000E+03  0.7818608E-02  0.1093470E+00
          1   -1    0    0  502    0  0.00000000000E+00  0.00000000000E+00  0.34747183971E+02  0.34747183971E+02  0.00000000000E+00 0.  1.
         13   -1    0    0    0    0 -0.00000000000E+00 -0.00000000000E+00 -0.10000000000E+04  0.10000000000E+04  0.00000000000E+00 0.  1.
    9000005    2    1    2  501    0 -0.24719707339E+02  0.94733298297E+01 -0.94701320217E+03  0.10025992226E+04  0.32813166274E+03 0.  0.
         13    1    3    3    0    0  0.11077474220E+03  0.11196965410E+03 -0.50805044163E+03  0.53190553502E+03  0.00000000000E+00 0.  1.
          1    1    3    3  501    0 -0.13549444954E+03 -0.10249632427E+03 -0.43896276054E+03  0.47069368754E+03  0.00000000000E+00 0.  1.
         21    1    1    2  502  501  0.24719707339E+02 -0.94733298297E+01 -0.18239613856E+02  0.32147961406E+02  0.00000000000E+00 0. -1.
<mgrwt>
<rscale>  1 0.30000000E+03</rscale>
<asrwt>0</asrwt>
<pdfrwt beam="1">  1        1 0.12635366E+00 0.30000000E+03</pdfrwt>
<pdfrwt beam="2">0</pdfrwt>
<totfact> 0.23957381E+01</totfact>
</mgrwt>
</event>
<event>
 6    1  0.1940992E-004  0.3000000E+03  0.7818608E-02  0.1093470E+00
          3   -1    0    0  502    0  0.00000000000E+00  0.00000000000E+00  0.33901965779E+02  0.33901965779E+02  0.00000000000E+00 0.  1.
         13   -1    0    0    0    0 -0.00000000000E+00 -0.00000000000E+00 -0.10000000000E+04  0.10000000000E+04  0.00000000000E+00 0.  1.
    9000005    2    1    2  501    0 -0.10223029210E+02  0.14729137310E+02 -0.96299745920E+03  0.10157065989E+04  0.32245050893E+03 0.  0.
         13    1    3    3    0    0  0.75873063419E+02  0.12802662837E+03 -0.27045805687E+03  0.30869904413E+03  0.00000000000E+00 0.  1.
          1    1    3    3  501    0 -0.86096092629E+02 -0.11329749106E+03 -0.69253940233E+03  0.70700755472E+03  0.00000000000E+00 0.  1.
         21    1    1    2  502  501  0.10223029210E+02 -0.14729137310E+02 -0.31005750188E+01  0.18195366926E+02  0.00000000000E+00 0.  1.
<mgrwt>
<rscale>  1 0.30000000E+03</rscale>
<asrwt>0</asrwt>
<pdfrwt beam="1">  1        3 0.12328014E+00 0.30000000E+03</pdfrwt>
<pdfrwt beam="2">0</pdfrwt>
<totfact> 0.21187844E+00</totfact>
</mgrwt>
</event>
<event>
 6    1  0.1940992E-004  0.3000000E+03  0.7818608E-02  0.1093470E+00
          1   -1    0    0  502    0  0.00000000000E+00  0.00000000000E+00  0.36165252674E+02  0.36165252674E+02  0.00000000000E+00 0.  1.
         13   -1    0    0    0    0 -0.00000000000E+00 -0.00000000000E+00 -0.10000000000E+04  0.10000000000E+04  0.00000000000E+00 0.  1.
    9000005    2    1    2  501    0  0.91335785947E+01  0.15623864496E+02 -0.96120437039E+03  0.10178773801E+04  0.33441440146E+03 0.  0.
         13    1    3    3    0    0 -0.65309279761E+02 -0.14077500007E+03 -0.55491641762E+03  0.57620754352E+03  0.00000000000E+00 0.  1.
          1    1    3    3  501    0  0.74442858356E+02  0.15639886456E+03 -0.40628795277E+03  0.44166983660E+03  0.00000000000E+00 0.  1.
         21    1    1    2  502  501 -0.91335785947E+01 -0.15623864496E+02 -0.26303769375E+01  0.18287872555E+02  0.00000000000E+00 0. -1.
<mgrwt>
<rscale>  1 0.30000000E+03</rscale>
<asrwt>0</asrwt>
<pdfrwt beam="1">  1        1 0.13151029E+00 0.30000000E+03</pdfrwt>
<pdfrwt beam="2">0</pdfrwt>
<totfact> 0.22451846E+01</totfact>
</mgrwt>
</event>
<event>
 6    1  0.1940992E-004  0.3000000E+03  0.7818608E-02  0.1093470E+00
          1   -1    0    0  502    0  0.00000000000E+00  0.00000000000E+00  0.30478948343E+02  0.30478948343E+02  0.00000000000E+00 0.  1.
         13   -1    0    0    0    0 -0.00000000000E+00 -0.00000000000E+00 -0.10000000000E+04  0.10000000000E+04  0.00000000000E+00 0.  1.
    9000005    2    1    2  501    0 -0.86238634197E+01  0.56434102846E+01 -0.95727861207E+03  0.10144759353E+04  0.33566778672E+03 0.  0.
         13    1    3    3    0    0 -0.81055769494E+02  0.14590920824E+03 -0.36210650631E+03  0.39872378500E+03  0.00000000000E+00 0.  1.
          1    1    3    3  501    0  0.72431906074E+02 -0.14026579796E+03 -0.59517210577E+03  0.61575215028E+03  0.00000000000E+00 0.  1.
         21    1    1    2  502  501  0.86238634197E+01 -0.56434102846E+01 -0.12242439583E+02  0.16003013056E+02  0.00000000000E+00 0. -1.
<mgrwt>
<rscale>  1 0.30000000E+03</rscale>
<asrwt>0</asrwt>
<pdfrwt beam="1">  1        1 0.11083277E+00 0.30000000E+03</pdfrwt>
<pdfrwt beam="2">0</pdfrwt>
<totfact> 0.29372817E+01</totfact>
</mgrwt>
</event>
<event>
 6    1  0.1940992E-004  0.3000000E+03  0.7818608E-02  0.1093470E+00
          1   -1    0    0  502    0  0.00000000000E+00  0.00000000000E+00  0.72280993110E+02  0.72280993110E+02  0.00000000000E+00 0.  1.
         13   -1    0    0    0    0 -0.00000000000E+00 -0.00000000000E+00 -0.10000000000E+04  0.10000000000E+04  0.00000000000E+00 0.  1.
    9000005    2    1    2  501    0  0.75535120963E+01 -0.11618221807E+02 -0.97179010328E+03  0.10260825066E+04  0.32905511210E+03 0.  0.
         13    1    3    3    0    0  0.72527791177E+02 -0.76201743516E+02 -0.86864109714E+02  0.13642712254E+03  0.00000000000E+00 0.  1.
          3    1    3    3  501    0 -0.64974279081E+02  0.64583521709E+02 -0.88492599357E+03  0.88965538402E+03  0.00000000000E+00 0.  1.
         21    1    1    2  502  501 -0.75535120963E+01  0.11618221807E+02  0.44071096391E+02  0.46198486556E+02  0.00000000000E+00 0.  1.
<mgrwt>
<rscale>  1 0.30000000E+03</rscale>
<asrwt>0</asrwt>
<pdfrwt beam="1">  1        1 0.26284053E+00 0.30000000E+03</pdfrwt>
<pdfrwt beam="2">0</pdfrwt>
<totfact> 0.51959906E+00</totfact>
</mgrwt>
</event>
<event>
 6    1  0.1940992E-004  0.3000000E+03  0.7818608E-02  0.1093470E+00
          1   -1    0    0  502    0  0.00000000000E+00  0.00000000000E+00  0.47450031124E+02  0.47450031124E+02  0.00000000000E+00 0.  1.
         13   -1    0    0    0    0 -0.00000000000E+00 -0.00000000000E+00 -0.10000000000E+04  0.10000000000E+04  0.00000000000E+00 0.  1.
    9000005    2    1    2  501    0 -0.27062689860E+02  0.85190544441E+02 -0.83538365628E+03  0.90008055378E+03  0.32293858870E+03 0.  0.
         13    1    3    3    0    0 -0.75293591676E+02  0.10794001723E+02 -0.80159820714E+03  0.80519893263E+03  0.00000000000E+00 0.  1.
          1    1    3    3  501    0  0.48230901817E+02  0.74396542717E+02 -0.33785449137E+02  0.94881621148E+02  0.00000000000E+00 0.  1.
         21    1    1    2  502  501  0.27062689860E+02 -0.85190544441E+02 -0.11716631260E+03  0.14736947734E+03  0.00000000000E+00 0. -1.
<mgrwt>
<rscale>  1 0.30000000E+03</rscale>
<asrwt>0</asrwt>
<pdfrwt beam="1">  1        1 0.17254593E+00 0.30000000E+03</pdfrwt>
<pdfrwt beam="2">0</pdfrwt>
<totfact> 0.13884343E+01</totfact>
</mgrwt>
</event>
<event>
 6    1  0.1940992E-004  0.3000000E+03  0.7818608E-02  0.1093470E+00
          1   -1    0    0  502    0  0.00000000000E+00  0.00000000000E+00  0.57087679840E+02  0.57087679840E+02  0.00000000000E+00 0.  1.
         13   -1    0    0    0    0 -0.00000000000E+00 -0.00000000000E+00 -0.10000000000E+04  0.10000000000E+04  0.00000000000E+00 0.  1.
    9000005    2    1    2  501    0  0.12669930693E+01  0.14222232846E+02 -0.97202731961E+03  0.10246599082E+04  0.32386253301E+03 0.  0.
         13    1    3    3    0    0 -0.35877878877E+02 -0.80180703992E+02 -0.58549551219E+02  0.10556617561E+03  0.00000000000E+00 0.  1.
          1    1    3    3  501    0  0.37144871946E+02  0.94402936838E+02 -0.91347776839E+03  0.91909373262E+03  0.00000000000E+00 0.  1.
         21    1    1    2  502  501 -0.12669930693E+01 -0.14222232846E+02  0.29114999450E+02  0.32427771609E+02  0.00000000000E+00 0.  1.
<mgrwt>
<rscale>  1 0.30000000E+03</rscale>
<asrwt>0</asrwt>
<pdfrwt beam="1">  1        1 0.20759200E+00 0.30000000E+03</pdfrwt>
<pdfrwt beam="2">0</pdfrwt>
<totfact> 0.94287744E+00</totfact>
</mgrwt>
</event>
<event>
 6    1  0.1940992E-004  0.3000000E+03  0.7818608E-02  0.1093470E+00
          1   -1    0    0  502    0  0.00000000000E+00  0.00000000000E+00  0.41175750414E+02  0.41175750414E+02  0.00000000000E+00 0.  1.
         13   -1    0    0    0    0 -0.00000000000E+00 -0.00000000000E+00 -0.10000000000E+04  0.10000000000E+04  0.00000000000E+00 0.  1.
    9000005    2    1    2  501    0 -0.71715046272E+02  0.20677163625E+01 -0.88853744423E+03  0.94073891295E+03  0.30057210321E+03 0.  0.
         13    1    3    3    0    0 -0.12195627705E+03  0.12557004326E+03 -0.47415249684E+03  0.50543225019E+03  0.00000000000E+00 0.  1.
          1    1    3    3  501    0  0.50241230774E+02 -0.12350232690E+03 -0.41438494739E+03  0.43530666276E+03  0.00000000000E+00 0.  1.
         21    1    1    2  502  501  0.71715046272E+02 -0.20677163625E+01 -0.70286805361E+02  0.10043683747E+03  0.00000000000E+00 0.  1.
<mgrwt>
<rscale>  1 0.30000000E+03</rscale>
<asrwt>0</asrwt>
<pdfrwt beam="1">  1        1 0.14973032E+00 0.30000000E+03</pdfrwt>
<pdfrwt beam="2">0</pdfrwt>
<totfact> 0.18021790E+01</totfact>
</mgrwt>
</event>
<event>
 6    1  0.1940992E-004  0.3000000E+03  0.7818608E-02  0.1093470E+00
          1   -1    0    0  502    0  0.00000000000E+00  0.00000000000E+00  0.43454502912E+02  0.43454502912E+02  0.00000000000E+00 0.  1.
         13   -1    0    0    0    0 -0.00000000000E+00 -0.00000000000E+00 -0.10000000000E+04  0.10000000000E+04  0.00000000000E+00 0.  1.
    9000005    2    1    2  501    0  0.67003246044E+02 -0.85115728149E+02 -0.89708875068E+03  0.91988578983E+03  0.17230066042E+03 0.  0.
         13    1    3    3    0    0 -0.15830034560E+00  0.40498446931E+02 -0.72145201395E+02  0.82734994695E+02  0.00000000000E+00 0.  1.
          1    1    3    3  501    0  0.67161546390E+02 -0.12561417508E+03 -0.82494354928E+03  0.83715079513E+03  0.00000000000E+00 0.  1.
         21    1    1    2  502  501 -0.67003246044E+02  0.85115728149E+02 -0.59456746413E+02  0.12356871308E+03  0.00000000000E+00 0.  1.
<mgrwt>
<rscale>  1 0.30000000E+03</rscale>
<asrwt>0</asrwt>
<pdfrwt beam="1">  1        1 0.15801671E+00 0.30000000E+03</pdfrwt>
<pdfrwt beam="2">0</pdfrwt>
<totfact> 0.16370963E+01</totfact>
</mgrwt>
</event>
<event>
 6    1  0.1940992E-004  0.3000000E+03  0.7818608E-02  0.1093470E+00
          1   -1    0    0  502    0  0.00000000000E+00  0.00000000000E+00  0.10283769197E+03  0.10283769197E+03  0.00000000000E+00 0.  1.
         13   -1    0    0    0    0 -0.00000000000E+00 -0.00000000000E+00 -0.10000000000E+04  0.10000000000E+04  0.00000000000E+00 0.  1.
    9000005    2    1    2  501    0  0.27952383753E+02 -0.17825461682E+02 -0.96634767290E+03  0.10261193920E+04  0.34350269118E+03 0.  0.
         13    1    3    3    0    0 -0.10509383725E+03  0.10108963113E+03 -0.26547611501E+03  0.30288842136E+03  0.00000000000E+00 0.  1.
          3    1    3    3  501    0  0.13304622100E+03 -0.11891509281E+03 -0.70087155788E+03  0.72323097062E+03  0.00000000000E+00 0.  1.
         21    1    1    2  502  501 -0.27952383753E+02  0.17825461682E+02  0.69185364866E+02  0.76718299990E+02  0.00000000000E+00 0.  1.
<mgrwt>
<rscale>  1 0.30000000E+03</rscale>
<asrwt>0</asrwt>
<pdfrwt beam="1">  1        1 0.37395603E+00 0.30000000E+03</pdfrwt>
<pdfrwt beam="2">0</pdfrwt>
<totfact> 0.14696278E+00</totfact>
</mgrwt>
</event>
<event>
 6    1  0.1940992E-004  0.3000000E+03  0.7818608E-02  0.1093470E+00
          1   -1    0    0  502    0  0.00000000000E+00  0.00000000000E+00  0.26207079215E+02  0.26207079215E+02  0.00000000000E+00 0.  1.
         13   -1    0    0    0    0 -0.00000000000E+00 -0.00000000000E+00 -0.10000000000E+04  0.10000000000E+04  0.00000000000E+00 0.  1.
    9000005    2    1    2  501    0  0.78921344257E+01  0.82160155630E+01 -0.93997380283E+03  0.99052064711E+03  0.31217080843E+03 0.  0.
         13    1    3    3    0    0  0.14450211605E+03  0.41802011453E+02 -0.30410202748E+03  0.33927321265E+03  0.00000000000E+00 0.  1.
          1    1    3    3  501    0 -0.13660998162E+03 -0.33585995890E+02 -0.63587177535E+03  0.65124743446E+03  0.00000000000E+00 0.  1.
         21    1    1    2  502  501 -0.78921344257E+01 -0.82160155630E+01 -0.33819117954E+02  0.35686432110E+02  0.00000000000E+00 0.  1.
<mgrwt>
<rscale>  1 0.30000000E+03</rscale>
<asrwt>0</asrwt>
<pdfrwt beam="1">  1        1 0.95298671E-01 0.30000000E+03</pdfrwt>
<pdfrwt beam="2">0</pdfrwt>
<totfact> 0.36704766E+01</totfact>
</mgrwt>
</event>
<event>
 6    1  0.1940992E-004  0.3000000E+03  0.7818608E-02  0.1093470E+00
          1   -1    0    0  502    0  0.00000000000E+00  0.00000000000E+00  0.73462383746E+02  0.73462383746E+02  0.00000000000E+00 0.  1.
         13   -1    0    0    0    0 -0.00000000000E+00 -0.00000000000E+00 -0.10000000000E+04  0.10000000000E+04  0.00000000000E+00 0.  1.
    9000005    2    1    2  501    0 -0.57712777131E+02  0.73416752403E+02 -0.91666920937E+03  0.97955727402E+03  0.33245936520E+03 0.  0.
         13    1    3    3    0    0 -0.14003481898E+03 -0.73953233986E+02 -0.28854454756E+03  0.32914554117E+03  0.00000000000E+00 0.  1.
          3    1    3    3  501    0  0.82322041848E+02  0.14736998639E+03 -0.62812466181E+03  0.65041173286E+03  0.00000000000E+00 0.  1.
         21    1    1    2  502  501  0.57712777131E+02 -0.73416752403E+02 -0.98684068817E+01  0.93905109722E+02  0.00000000000E+00 0. -1.
<mgrwt>
<rscale>  1 0.30000000E+03</rscale>
<asrwt>0</asrwt>
<pdfrwt beam="1">  1        1 0.26713650E+00 0.30000000E+03</pdfrwt>
<pdfrwt beam="2">0</pdfrwt>
<totfact> 0.49594085E+00</totfact>
</mgrwt>
</event>
<event>
 6    1  0.1940992E-004  0.3000000E+03  0.7818608E-02  0.1093470E+00
          1   -1    0    0  502    0  0.00000000000E+00  0.00000000000E+00  0.71564040405E+02  0.71564040405E+02  0.00000000000E+00 0.  1.
         13   -1    0    0    0    0 -0.00000000000E+00 -0.00000000000E+00 -0.10000000000E+04  0.10000000000E+04  0.00000000000E+00 0.  1.
    9000005    2    1    2  501    0  0.45342641709E+01  0.32841421313E+02 -0.96671695622E+03  0.10209226225E+04  0.32656118748E+03 0.  0.
         13    1    3    3    0    0 -0.10550283281E+01 -0.33267768647E+02  0.15324356789E+02  0.36642781370E+02  0.00000000000E+00 0.  1.
          1    1    3    3  501    0  0.55892924991E+01  0.66109189960E+02 -0.98204131301E+03  0.98427984112E+03  0.00000000000E+00 0.  1.
         21    1    1    2  502  501 -0.45342641709E+01 -0.32841421313E+02  0.38280996625E+02  0.50641417911E+02  0.00000000000E+00 0.  1.
<mgrwt>
<rscale>  1 0.30000000E+03</rscale>
<asrwt>0</asrwt>
<pdfrwt beam="1">  1        1 0.26023342E+00 0.30000000E+03</pdfrwt>
<pdfrwt beam="2">0</pdfrwt>
<totfact> 0.53448089E+00</totfact>
</mgrwt>
</event>
<event>
 6    1  0.2502629E-004  0.3000000E+03  0.7818608E-02  0.1093470E+00
          1   -1    0    0  502    0  0.00000000000E+00  0.00000000000E+00  0.51215510839E+02  0.51215510839E+02  0.00000000000E+00 0.  1.
         13   -1    0    0    0    0 -0.00000000000E+00 -0.00000000000E+00 -0.10000000000E+04  0.10000000000E+04  0.00000000000E+00 0.  1.
    9000005    2    1    2  501    0 -0.13033849011E+02 -0.49563030995E+01 -0.94385027839E+03  0.10364238714E+04  0.42793299370E+03 0.  0.
         13    1    3    3    0    0 -0.32752462080E+02 -0.16644541432E+03 -0.15116907686E+03  0.22721991444E+03  0.00000000000E+00 0.  1.
          3    1    3    3  501    0  0.19718613069E+02  0.16148911122E+03 -0.79268120153E+03  0.80920395699E+03  0.00000000000E+00 0.  1.
         21    1    1    2  502  501  0.13033849011E+02  0.49563030995E+01 -0.49342107740E+01  0.14791639409E+02  0.00000000000E+00 0.  1.
<mgrwt>
<rscale>  1 0.30000000E+03</rscale>
<asrwt>0</asrwt>
<pdfrwt beam="1">  1        1 0.18623861E+00 0.30000000E+03</pdfrwt>
<pdfrwt beam="2">0</pdfrwt>
<totfact> 0.11919781E+01</totfact>
</mgrwt>
</event>
<event>
 6    1  0.1940992E-004  0.3000000E+03  0.7818608E-02  0.1093470E+00
          1   -1    0    0  502    0  0.00000000000E+00  0.00000000000E+00  0.17863956090E+02  0.17863956090E+02  0.00000000000E+00 0.  1.
         13   -1    0    0    0    0 -0.00000000000E+00 -0.00000000000E+00 -0.10000000000E+04  0.10000000000E+04  0.00000000000E+00 0.  1.
    9000005    2    1    2  501    0 -0.29257409375E+02  0.20196810353E+02 -0.80914347134E+03  0.84125609297E+03  0.22745274145E+03 0.  0.
         13    1    3    3    0    0  0.19551655283E+01 -0.47895336865E+02 -0.25988166218E+02  0.54526789278E+02  0.00000000000E+00 0.  1.
          3    1    3    3  501    0 -0.31212574904E+02  0.68092147217E+02 -0.78315530512E+03  0.78672930369E+03  0.00000000000E+00 0.  1.
         21    1    1    2  502  501  0.29257409375E+02 -0.20196810353E+02 -0.17299257257E+03  0.17660786312E+03  0.00000000000E+00 0.  1.
<mgrwt>
<rscale>  1 0.30000000E+03</rscale>
<asrwt>0</asrwt>
<pdfrwt beam="1">  1        1 0.64959977E-01 0.30000000E+03</pdfrwt>
<pdfrwt beam="2">0</pdfrwt>
<totfact> 0.62366479E+01</totfact>
</mgrwt>
</event>
<event>
 6    1  0.1940992E-004  0.3000000E+03  0.7818608E-02  0.1093470E+00
          1   -1    0    0  502    0  0.00000000000E+00  0.00000000000E+00  0.43000793495E+02  0.43000793495E+02  0.00000000000E+00 0.  1.
         13   -1    0    0    0    0 -0.00000000000E+00 -0.00000000000E+00 -0.10000000000E+04  0.10000000000E+04  0.00000000000E+00 0.  1.
    9000005    2    1    2  501    0  0.31617025355E+02 -0.72364019640E+01 -0.95545518132E+03  0.10105294859E+04  0.32744959380E+03 0.  0.
         13    1    3    3    0    0  0.19196969740E+02  0.46531714957E+02  0.30581566105E+01  0.50428924893E+02  0.00000000000E+00 0.  1.
          1    1    3    3  501    0  0.12420055614E+02 -0.53768116921E+02 -0.95851333793E+03  0.96010056097E+03  0.00000000000E+00 0.  1.
         21    1    1    2  502  501 -0.31617025355E+02  0.72364019640E+01 -0.15440251850E+01  0.32471307634E+02  0.00000000000E+00 0.  1.
<mgrwt>
<rscale>  1 0.30000000E+03</rscale>
<asrwt>0</asrwt>
<pdfrwt beam="1">  1        1 0.15636685E+00 0.30000000E+03</pdfrwt>
<pdfrwt beam="2">0</pdfrwt>
<totfact> 0.16684640E+01</totfact>
</mgrwt>
</event>
<event>
 6    1  0.1940992E-004  0.3000000E+03  0.7818608E-02  0.1093470E+00
          1   -1    0    0  502    0  0.00000000000E+00  0.00000000000E+00  0.31618845900E+02  0.31618845900E+02  0.00000000000E+00 0.  1.
         13   -1    0    0    0    0 -0.00000000000E+00 -0.00000000000E+00 -0.10000000000E+04  0.10000000000E+04  0.00000000000E+00 0.  1.
    9000005    2    1    2  501    0  0.10573689524E+02  0.23734068400E+01 -0.96047233998E+03  0.10182029855E+04  0.33780581373E+03 0.  0.
         13    1    3    3    0    0  0.54866852777E+01 -0.71935202296E+02 -0.93748078550E+03  0.94025262575E+03  0.00000000000E+00 0.  1.
          1    1    3    3  501    0  0.50870042460E+01  0.74308609136E+02 -0.22991554479E+02  0.77950359725E+02  0.00000000000E+00 0.  1.
         21    1    1    2  502  501 -0.10573689524E+02 -0.23734068400E+01 -0.79088141222E+01  0.13415860427E+02  0.00000000000E+00 0.  1.
<mgrwt>
<rscale>  1 0.30000000E+03</rscale>
<asrwt>0</asrwt>
<pdfrwt beam="1">  1        1 0.11497786E+00 0.30000000E+03</pdfrwt>
<pdfrwt beam="2">0</pdfrwt>
<totfact> 0.27774331E+01</totfact>
</mgrwt>
</event>
<event>
 6    1  0.1940992E-004  0.3000000E+03  0.7818608E-02  0.1093470E+00
          1   -1    0    0  502    0  0.00000000000E+00  0.00000000000E+00  0.40835335975E+02  0.40835335975E+02  0.00000000000E+00 0.  1.
         13   -1    0    0    0    0 -0.00000000000E+00 -0.00000000000E+00 -0.10000000000E+04  0.10000000000E+04  0.00000000000E+00 0.  1.
    9000005    2    1    2  501    0 -0.24789264398E+02  0.18449061117E+02 -0.95161038883E+03  0.10090242914E+04  0.33408503851E+03 0.  0.
         13    1    3    3    0    0  0.58827498130E+02 -0.13885174892E+03 -0.53678929169E+03  0.55756903285E+03  0.00000000000E+00 0.  1.
          1    1    3    3  501    0 -0.83616762528E+02  0.15730081004E+03 -0.41482109713E+03  0.45145525852E+03  0.00000000000E+00 0.  1.
         21    1    1    2  502  501  0.24789264398E+02 -0.18449061117E+02 -0.75542752000E+01  0.31811044612E+02  0.00000000000E+00 0.  1.
<mgrwt>
<rscale>  1 0.30000000E+03</rscale>
<asrwt>0</asrwt>
<pdfrwt beam="1">  1        1 0.14849244E+00 0.30000000E+03</pdfrwt>
<pdfrwt beam="2">0</pdfrwt>
<totfact> 0.18285555E+01</totfact>
</mgrwt>
</event>
<event>
 6    1  0.1940992E-004  0.3000000E+03  0.7818608E-02  0.1093470E+00
          1   -1    0    0  502    0  0.00000000000E+00  0.00000000000E+00  0.31447044786E+02  0.31447044786E+02  0.00000000000E+00 0.  1.
         13   -1    0    0    0    0 -0.00000000000E+00 -0.00000000000E+00 -0.10000000000E+04  0.10000000000E+04  0.00000000000E+00 0.  1.
    9000005    2    1    2  501    0 -0.43088604711E+01  0.13279050516E+02 -0.96774539207E+03  0.10174630675E+04  0.31385514253E+03 0.  0.
         13    1    3    3    0    0 -0.38654599937E+01  0.79892001875E+02 -0.43941947140E+02  0.91260990916E+02  0.00000000000E+00 0.  1.
          1    1    3    3  501    0 -0.44340047741E+00 -0.66612951359E+02 -0.92380344493E+03  0.92620207663E+03  0.00000000000E+00 0.  1.
         21    1    1    2  502  501  0.43088604711E+01 -0.13279050516E+02 -0.80756314330E+00  0.13983977238E+02  0.00000000000E+00 0.  1.
<mgrwt>
<rscale>  1 0.30000000E+03</rscale>
<asrwt>0</asrwt>
<pdfrwt beam="1">  1        1 0.11435313E+00 0.30000000E+03</pdfrwt>
<pdfrwt beam="2">0</pdfrwt>
<totfact> 0.28007223E+01</totfact>
</mgrwt>
</event>
<event>
 6    1  0.1940992E-004  0.3000000E+03  0.7818608E-02  0.1093470E+00
          1   -1    0    0  502    0  0.00000000000E+00  0.00000000000E+00  0.23214701392E+02  0.23214701392E+02  0.00000000000E+00 0.  1.
         13   -1    0    0    0    0 -0.00000000000E+00 -0.00000000000E+00 -0.10000000000E+04  0.10000000000E+04  0.00000000000E+00 0.  1.
    9000005    2    1    2  501    0 -0.23396309153E+02  0.16797884196E+01 -0.96027613762E+03  0.99453088422E+03  0.25770372564E+03 0.  0.
         13    1    3    3    0    0 -0.78198397171E+02 -0.93329545798E+02 -0.72235761494E+03  0.73254755292E+03  0.00000000000E+00 0.  1.
          3    1    3    3  501    0  0.54802088018E+02  0.95009334218E+02 -0.23791852268E+03  0.26198333129E+03  0.00000000000E+00 0.  1.
         21    1    1    2  502  501  0.23396309153E+02 -0.16797884196E+01 -0.16509160989E+02  0.28683817174E+02  0.00000000000E+00 0.  1.
<mgrwt>
<rscale>  1 0.30000000E+03</rscale>
<asrwt>0</asrwt>
<pdfrwt beam="1">  1        1 0.84417274E-01 0.30000000E+03</pdfrwt>
<pdfrwt beam="2">0</pdfrwt>
<totfact> 0.43586282E+01</totfact>
</mgrwt>
</event>
<event>
 6    1  0.1940992E-004  0.3000000E+03  0.7818608E-02  0.1093470E+00
          1   -1    0    0  502    0  0.00000000000E+00  0.00000000000E+00  0.40388365919E+02  0.40388365919E+02  0.00000000000E+00 0.  1.
         13   -1    0    0    0    0 -0.00000000000E+00 -0.00000000000E+00 -0.10000000000E+04  0.10000000000E+04  0.00000000000E+00 0.  1.
    9000005    2    1    2  501    0  0.25345096613E+02 -0.17661679230E+02 -0.91324955470E+03  0.98467704535E+03  0.36689211716E+03 0.  0.
         13    1    3    3    0    0 -0.12476851250E+03 -0.44349905672E+02 -0.74881867547E+03  0.76043639088E+03  0.00000000000E+00 0.  1.
          1    1    3    3  501    0  0.15011360911E+03  0.26688226442E+02 -0.16443087923E+03  0.22424065447E+03  0.00000000000E+00 0.  1.
         21    1    1    2  502  501 -0.25345096613E+02  0.17661679230E+02 -0.46362079378E+02  0.55711320571E+02  0.00000000000E+00 0. -1.
<mgrwt>
<rscale>  1 0.30000000E+03</rscale>
<asrwt>0</asrwt>
<pdfrwt beam="1">  1        1 0.14686709E+00 0.30000000E+03</pdfrwt>
<pdfrwt beam="2">0</pdfrwt>
<totfact> 0.18639244E+01</totfact>
</mgrwt>
</event>
<event>
 6    1  0.1940992E-004  0.3000000E+03  0.7818608E-02  0.1093470E+00
          1   -1    0    0  502    0  0.00000000000E+00  0.00000000000E+00  0.32927090787E+02  0.32927090787E+02  0.00000000000E+00 0.  1.
         13   -1    0    0    0    0 -0.00000000000E+00 -0.00000000000E+00 -0.10000000000E+04  0.10000000000E+04  0.00000000000E+00 0.  1.
    9000005    2    1    2  501    0 -0.37220117615E+01 -0.20489587951E+02 -0.96022706638E+03  0.10110058192E+04  0.31569458464E+03 0.  0.
         13    1    3    3    0    0  0.10066371195E+03  0.94281872461E+02 -0.26571980576E+03  0.29938147830E+03  0.00000000000E+00 0.  1.
          3    1    3    3  501    0 -0.10438572371E+03 -0.11477146041E+03 -0.69450726062E+03  0.71162434085E+03  0.00000000000E+00 0.  1.
         21    1    1    2  502  501  0.37220117615E+01  0.20489587951E+02 -0.68458428365E+01  0.21921271635E+02  0.00000000000E+00 0.  1.
<mgrwt>
<rscale>  1 0.30000000E+03</rscale>
<asrwt>0</asrwt>
<pdfrwt beam="1">  1        1 0.11973513E+00 0.30000000E+03</pdfrwt>
<pdfrwt beam="2">0</pdfrwt>
<totfact> 0.26085874E+01</totfact>
</mgrwt>
</event>
<event>
 6    1  0.1940992E-004  0.3000000E+03  0.7818608E-02  0.1093470E+00
          1   -1    0    0  502    0  0.00000000000E+00  0.00000000000E+00  0.28544396382E+02  0.28544396382E+02  0.00000000000E+00 0.  1.
         13   -1    0    0    0    0 -0.00000000000E+00 -0.00000000000E+00 -0.10000000000E+04  0.10000000000E+04  0.00000000000E+00 0.  1.
    9000005    2    1    2  501    0  0.70450668890E+01 -0.84796194907E+01 -0.95850801015E+03  0.10115391886E+04  0.32303620183E+03 0.  0.
         13    1    3    3    0    0 -0.14932859438E+03 -0.18775615474E+02 -0.31334047400E+03  0.34761157271E+03  0.00000000000E+00 0.  1.
          3    1    3    3  501    0  0.15637366127E+03  0.10295995984E+02 -0.64516753615E+03  0.66392761591E+03  0.00000000000E+00 0.  1.
         21    1    1    2  502  501 -0.70450668890E+01  0.84796194907E+01 -0.12947593468E+02  0.17005207755E+02  0.00000000000E+00 0. -1.
<mgrwt>
<rscale>  1 0.30000000E+03</rscale>
<asrwt>0</asrwt>
<pdfrwt beam="1">  1        1 0.10379802E+00 0.30000000E+03</pdfrwt>
<pdfrwt beam="2">0</pdfrwt>
<totfact> 0.32401026E+01</totfact>
</mgrwt>
</event>
<event>
 6    1  0.1940992E-004  0.3000000E+03  0.7818608E-02  0.1093470E+00
          1   -1    0    0  502    0  0.00000000000E+00  0.00000000000E+00  0.41477596879E+02  0.41477596879E+02  0.00000000000E+00 0.  1.
         13   -1    0    0    0    0 -0.00000000000E+00 -0.00000000000E+00 -0.10000000000E+04  0.10000000000E+04  0.00000000000E+00 0.  1.
    9000005    2    1    2  501    0  0.10858219951E+02 -0.72093815503E+02 -0.86648828879E+03  0.92406508743E+03  0.31269619765E+03 0.  0.
         13    1    3    3    0    0 -0.29895551371E+02 -0.17694485954E+03 -0.32730425618E+03  0.37327108570E+03  0.00000000000E+00 0.  1.
          1    1    3    3  501    0  0.40753771322E+02  0.10485104404E+03 -0.53918403262E+03  0.55079400173E+03  0.00000000000E+00 0.  1.
         21    1    1    2  502  501 -0.10858219951E+02  0.72093815503E+02 -0.92034114327E+02  0.11741250945E+03  0.00000000000E+00 0.  1.
<mgrwt>
<rscale>  1 0.30000000E+03</rscale>
<asrwt>0</asrwt>
<pdfrwt beam="1">  1        1 0.15082794E+00 0.30000000E+03</pdfrwt>
<pdfrwt beam="2">0</pdfrwt>
<totfact> 0.17791845E+01</totfact>
</mgrwt>
</event>
<event>
 6    1  0.1940992E-004  0.3000000E+03  0.7818608E-02  0.1093470E+00
          1   -1    0    0  502    0  0.00000000000E+00  0.00000000000E+00  0.37871966419E+02  0.37871966419E+02  0.00000000000E+00 0.  1.
         13   -1    0    0    0    0 -0.00000000000E+00 -0.00000000000E+00 -0.10000000000E+04  0.10000000000E+04  0.00000000000E+00 0.  1.
    9000005    2    1    2  501    0  0.30915560331E+02 -0.39422433316E+02 -0.87375795161E+03  0.93628864345E+03  0.33267636784E+03 0.  0.
         13    1    3    3    0    0 -0.69637593540E+02  0.12525221563E+03 -0.35769092529E+03  0.38533142876E+03  0.00000000000E+00 0.  1.
          3    1    3    3  501    0  0.10055315387E+03 -0.16467464894E+03 -0.51606702632E+03  0.55095721468E+03  0.00000000000E+00 0.  1.
         21    1    1    2  502  501 -0.30915560331E+02  0.39422433316E+02 -0.88370081968E+02  0.10158332297E+03  0.00000000000E+00 0.  1.
<mgrwt>
<rscale>  1 0.30000000E+03</rscale>
<asrwt>0</asrwt>
<pdfrwt beam="1">  1        1 0.13771653E+00 0.30000000E+03</pdfrwt>
<pdfrwt beam="2">0</pdfrwt>
<totfact> 0.20800002E+01</totfact>
</mgrwt>
</event>
<event>
 6    1  0.1940992E-004  0.3000000E+03  0.7818608E-02  0.1093470E+00
          1   -1    0    0  502    0  0.00000000000E+00  0.00000000000E+00  0.31904314571E+02  0.31904314571E+02  0.00000000000E+00 0.  1.
         13   -1    0    0    0    0 -0.00000000000E+00 -0.00000000000E+00 -0.10000000000E+04  0.10000000000E+04  0.00000000000E+00 0.  1.
    9000005    2    1    2  501    0 -0.46522613774E+01  0.13263472812E+02 -0.95803432208E+03  0.10146186477E+04  0.33380184948E+03 0.  0.
         13    1    3    3    0    0 -0.74926876504E+02 -0.88684311166E+02 -0.11811119041E+03  0.16561762336E+03  0.00000000000E+00 0.  1.
          3    1    3    3  501    0  0.70274615126E+02  0.10194778398E+03 -0.83992313168E+03  0.84900102433E+03  0.00000000000E+00 0.  1.
         21    1    1    2  502  501  0.46522613774E+01 -0.13263472812E+02 -0.10061363345E+02  0.17285666875E+02  0.00000000000E+00 0.  1.
<mgrwt>
<rscale>  1 0.30000000E+03</rscale>
<asrwt>0</asrwt>
<pdfrwt beam="1">  1        1 0.11601593E+00 0.30000000E+03</pdfrwt>
<pdfrwt beam="2">0</pdfrwt>
<totfact> 0.27393314E+01</totfact>
</mgrwt>
</event>
<event>
 6    1  0.1940992E-004  0.3000000E+03  0.7818608E-02  0.1093470E+00
          3   -1    0    0  502    0  0.00000000000E+00  0.00000000000E+00  0.40750004623E+02  0.40750004623E+02  0.00000000000E+00 0.  1.
         13   -1    0    0    0    0 -0.00000000000E+00 -0.00000000000E+00 -0.10000000000E+04  0.10000000000E+04  0.00000000000E+00 0.  1.
    9000005    2    1    2  501    0  0.18964238114E+02  0.13646800503E+02 -0.95511136652E+03  0.10170222626E+04  0.34864119484E+03 0.  0.
         13    1    3    3    0    0 -0.12835851612E+03  0.13186551909E+02 -0.14702955551E+03  0.19562076578E+03  0.00000000000E+00 0.  1.
          1    1    3    3  501    0  0.14732275423E+03  0.46024859398E+00 -0.80808181102E+03  0.82140149686E+03  0.00000000000E+00 0.  1.
         21    1    1    2  502  501 -0.18964238114E+02 -0.13646800503E+02 -0.41386288561E+01  0.23727741991E+02  0.00000000000E+00 0.  1.
<mgrwt>
<rscale>  1 0.30000000E+03</rscale>
<asrwt>0</asrwt>
<pdfrwt beam="1">  1        3 0.14818215E+00 0.30000000E+03</pdfrwt>
<pdfrwt beam="2">0</pdfrwt>
<totfact> 0.10479840E+00</totfact>
</mgrwt>
</event>
<event>
 6    1  0.1940992E-004  0.3000000E+03  0.7818608E-02  0.1093470E+00
          3   -1    0    0  502    0  0.00000000000E+00  0.00000000000E+00  0.32607408605E+02  0.32607408605E+02  0.00000000000E+00 0.  1.
         13   -1    0    0    0    0 -0.00000000000E+00 -0.00000000000E+00 -0.10000000000E+04  0.10000000000E+04  0.00000000000E+00 0.  1.
    9000005    2    1    2  501    0 -0.40289754274E+01  0.12586951135E+02 -0.96930655682E+03  0.10192534861E+04  0.31487744266E+03 0.  0.
         13    1    3    3    0    0 -0.15509735356E+03  0.42796135807E+02 -0.51339543979E+03  0.53801633425E+03  0.00000000000E+00 0.  1.
          1    1    3    3  501    0  0.15106837814E+03 -0.30209184672E+02 -0.45591111704E+03  0.48123715188E+03  0.00000000000E+00 0.  1.
         21    1    1    2  502  501  0.40289754274E+01 -0.12586951135E+02  0.19139654299E+01  0.13353922478E+02  0.00000000000E+00 0.  1.
<mgrwt>
<rscale>  1 0.30000000E+03</rscale>
<asrwt>0</asrwt>
<pdfrwt beam="1">  1        3 0.11857264E+00 0.30000000E+03</pdfrwt>
<pdfrwt beam="2">0</pdfrwt>
<totfact> 0.24027292E+00</totfact>
</mgrwt>
</event>
<event>
 6    1  0.1940992E-004  0.3000000E+03  0.7818608E-02  0.1093470E+00
          1   -1    0    0  502    0  0.00000000000E+00  0.00000000000E+00  0.28833946679E+02  0.28833946679E+02  0.00000000000E+00 0.  1.
         13   -1    0    0    0    0 -0.00000000000E+00 -0.00000000000E+00 -0.10000000000E+04  0.10000000000E+04  0.00000000000E+00 0.  1.
    9000005    2    1    2  501    0 -0.63342975084E+01 -0.11299400525E+02 -0.96616998468E+03  0.10149501259E+04  0.31059864621E+03 0.  0.
         13    1    3    3    0    0  0.10989987244E+03 -0.82620254159E+02 -0.24448975785E+03  0.28049836016E+03  0.00000000000E+00 0.  1.
          3    1    3    3  501    0 -0.11623416994E+03  0.71320853634E+02 -0.72168022683E+03  0.73445176576E+03  0.00000000000E+00 0.  1.
         21    1    1    2  502  501  0.63342975084E+01  0.11299400525E+02 -0.49960686462E+01  0.13883820766E+02  0.00000000000E+00 0. -1.
<mgrwt>
<rscale>  1 0.30000000E+03</rscale>
<asrwt>0</asrwt>
<pdfrwt beam="1">  1        1 0.10485094E+00 0.30000000E+03</pdfrwt>
<pdfrwt beam="2">0</pdfrwt>
<totfact> 0.31919991E+01</totfact>
</mgrwt>
</event>
<event>
 6    1  0.1940992E-004  0.3000000E+03  0.7818608E-02  0.1093470E+00
          1   -1    0    0  502    0  0.00000000000E+00  0.00000000000E+00  0.36169269351E+02  0.36169269351E+02  0.00000000000E+00 0.  1.
         13   -1    0    0    0    0 -0.00000000000E+00 -0.00000000000E+00 -0.10000000000E+04  0.10000000000E+04  0.00000000000E+00 0.  1.
    9000005    2    1    2  501    0 -0.29237443228E+02  0.71061290820E+01 -0.94714415560E+03  0.10017633550E+04  0.32487296398E+03 0.  0.
         13    1    3    3    0    0 -0.81547269882E+02 -0.59631468184E+02 -0.89818592432E+03  0.90384944757E+03  0.00000000000E+00 0.  1.
          1    1    3    3  501    0  0.52309826654E+02  0.66737597266E+02 -0.48958231279E+02  0.97913907405E+02  0.00000000000E+00 0.  1.
         21    1    1    2  502  501  0.29237443228E+02 -0.71061290820E+01 -0.16686575046E+02  0.34405914372E+02  0.00000000000E+00 0.  1.
<mgrwt>
<rscale>  1 0.30000000E+03</rscale>
<asrwt>0</asrwt>
<pdfrwt beam="1">  1        1 0.13152489E+00 0.30000000E+03</pdfrwt>
<pdfrwt beam="2">0</pdfrwt>
<totfact> 0.22447758E+01</totfact>
</mgrwt>
</event>
<event>
 6    1  0.1940992E-004  0.3000000E+03  0.7818608E-02  0.1093470E+00
          1   -1    0    0  502    0  0.00000000000E+00  0.00000000000E+00  0.45469389722E+02  0.45469389722E+02  0.00000000000E+00 0.  1.
         13   -1    0    0    0    0 -0.00000000000E+00 -0.00000000000E+00 -0.10000000000E+04  0.10000000000E+04  0.00000000000E+00 0.  1.
    9000005    2    1    2  501    0 -0.43315078591E+02 -0.98858993730E+01 -0.94243480079E+03  0.99942337310E+03  0.32968135817E+03 0.  0.
         13    1    3    3    0    0 -0.36339555073E+02 -0.16700399347E+03 -0.40864092837E+03  0.44294277896E+03  0.00000000000E+00 0.  1.
          3    1    3    3  501    0 -0.69755235181E+01  0.15711809409E+03 -0.53379387241E+03  0.55648059413E+03  0.00000000000E+00 0.  1.
         21    1    1    2  502  501  0.43315078591E+02  0.98858993730E+01 -0.12095809492E+02  0.46046016625E+02  0.00000000000E+00 0.  1.
<mgrwt>
<rscale>  1 0.30000000E+03</rscale>
<asrwt>0</asrwt>
<pdfrwt beam="1">  1        1 0.16534358E+00 0.30000000E+03</pdfrwt>
<pdfrwt beam="2">0</pdfrwt>
<totfact> 0.15058543E+01</totfact>
</mgrwt>
</event>
<event>
 6    1  0.1940992E-004  0.3000000E+03  0.7818608E-02  0.1093470E+00
          1   -1    0    0  502    0  0.00000000000E+00  0.00000000000E+00  0.28817826892E+02  0.28817826892E+02  0.00000000000E+00 0.  1.
         13   -1    0    0    0    0 -0.00000000000E+00 -0.00000000000E+00 -0.10000000000E+04  0.10000000000E+04  0.00000000000E+00 0.  1.
    9000005    2    1    2  501    0  0.67131739540E+01 -0.19863851785E+02 -0.96974994079E+03  0.10078013904E+04  0.27351244136E+03 0.  0.
         13    1    3    3    0    0  0.23333422941E+01 -0.96048541686E+02 -0.11588256416E+03  0.15053084575E+03  0.00000000000E+00 0.  1.
          3    1    3    3  501    0  0.43798316599E+01  0.76184689902E+02 -0.85386737662E+03  0.85727054467E+03  0.00000000000E+00 0.  1.
         21    1    1    2  502  501 -0.67131739540E+01  0.19863851785E+02 -0.14322323205E+01  0.21016436465E+02  0.00000000000E+00 0. -1.
<mgrwt>
<rscale>  1 0.30000000E+03</rscale>
<asrwt>0</asrwt>
<pdfrwt beam="1">  1        1 0.10479232E+00 0.30000000E+03</pdfrwt>
<pdfrwt beam="2">0</pdfrwt>
<totfact> 0.31946498E+01</totfact>
</mgrwt>
</event>
<event>
 6    1  0.1940992E-004  0.3000000E+03  0.7818608E-02  0.1093470E+00
          1   -1    0    0  502    0  0.00000000000E+00  0.00000000000E+00  0.36031514528E+02  0.36031514528E+02  0.00000000000E+00 0.  1.
         13   -1    0    0    0    0 -0.00000000000E+00 -0.00000000000E+00 -0.10000000000E+04  0.10000000000E+04  0.00000000000E+00 0.  1.
    9000005    2    1    2  501    0  0.10870112341E+02  0.32399252571E+01 -0.96224590620E+03  0.10245587757E+04  0.35167434412E+03 0.  0.
         13    1    3    3    0    0  0.11748128538E+03  0.13614634925E+03 -0.54348689586E+03  0.57246457253E+03  0.00000000000E+00 0.  1.
          3    1    3    3  501    0 -0.10661117304E+03 -0.13290642400E+03 -0.41875901034E+03  0.45209420312E+03  0.00000000000E+00 0.  1.
         21    1    1    2  502  501 -0.10870112341E+02 -0.32399252571E+01 -0.17225792736E+01  0.11472738876E+02  0.00000000000E+00 0.  1.
<mgrwt>
<rscale>  1 0.30000000E+03</rscale>
<asrwt>0</asrwt>
<pdfrwt beam="1">  1        1 0.13102397E+00 0.30000000E+03</pdfrwt>
<pdfrwt beam="2">0</pdfrwt>
<totfact> 0.22588494E+01</totfact>
</mgrwt>
</event>
<event>
 6    1  0.1940992E-004  0.3000000E+03  0.7818608E-02  0.1093470E+00
          1   -1    0    0  502    0  0.00000000000E+00  0.00000000000E+00  0.39418077200E+02  0.39418077200E+02  0.00000000000E+00 0.  1.
         13   -1    0    0    0    0 -0.00000000000E+00 -0.00000000000E+00 -0.10000000000E+04  0.10000000000E+04  0.00000000000E+00 0.  1.
    9000005    2    1    2  501    0  0.32519741932E+02 -0.16149867152E+02 -0.90168528541E+03  0.97022873034E+03  0.35635527695E+03 0.  0.
         13    1    3    3    0    0  0.17125625068E+03 -0.83936245153E+02 -0.36569781457E+03  0.41244258780E+03  0.00000000000E+00 0.  1.
          1    1    3    3  501    0 -0.13873650875E+03  0.67786378001E+02 -0.53598747084E+03  0.55778614254E+03  0.00000000000E+00 0.  1.
         21    1    1    2  502  501 -0.32519741932E+02  0.16149867152E+02 -0.58896637385E+02  0.69189346865E+02  0.00000000000E+00 0. -1.
<mgrwt>
<rscale>  1 0.30000000E+03</rscale>
<asrwt>0</asrwt>
<pdfrwt beam="1">  1        1 0.14333876E+00 0.30000000E+03</pdfrwt>
<pdfrwt beam="2">0</pdfrwt>
<totfact> 0.19437091E+01</totfact>
</mgrwt>
</event>
<event>
 6    1  0.1940992E-004  0.3000000E+03  0.7818608E-02  0.1093470E+00
          1   -1    0    0  502    0  0.00000000000E+00  0.00000000000E+00  0.31331727354E+02  0.31331727354E+02  0.00000000000E+00 0.  1.
         13   -1    0    0    0    0 -0.00000000000E+00 -0.00000000000E+00 -0.10000000000E+04  0.10000000000E+04  0.00000000000E+00 0.  1.
    9000005    2    1    2  501    0 -0.14177589966E+01  0.18201217258E+02 -0.95710458295E+03  0.10097212376E+04  0.32117674340E+03 0.  0.
         13    1    3    3    0    0 -0.44713209727E+02 -0.50921112962E+02 -0.91578682956E+03  0.91829066643E+03  0.00000000000E+00 0.  1.
          3    1    3    3  501    0  0.43295450731E+02  0.69122330219E+02 -0.41317753396E+02  0.91430571116E+02  0.00000000000E+00 0.  1.
         21    1    1    2  502  501  0.14177589966E+01 -0.18201217258E+02 -0.11563689693E+02  0.21610489804E+02  0.00000000000E+00 0. -1.
<mgrwt>
<rscale>  1 0.30000000E+03</rscale>
<asrwt>0</asrwt>
<pdfrwt beam="1">  1        1 0.11393379E+00 0.30000000E+03</pdfrwt>
<pdfrwt beam="2">0</pdfrwt>
<totfact> 0.28165093E+01</totfact>
</mgrwt>
</event>
<event>
 6    1  0.1940992E-004  0.3000000E+03  0.7818608E-02  0.1093470E+00
          1   -1    0    0  502    0  0.00000000000E+00  0.00000000000E+00  0.36459151462E+02  0.36459151462E+02  0.00000000000E+00 0.  1.
         13   -1    0    0    0    0 -0.00000000000E+00 -0.00000000000E+00 -0.10000000000E+04  0.10000000000E+04  0.00000000000E+00 0.  1.
    9000005    2    1    2  501    0 -0.33608933744E+02 -0.54087452045E+01 -0.94355623201E+03  0.99698511126E+03  0.32019077775E+03 0.  0.
         13    1    3    3    0    0 -0.14512985623E+03 -0.70090108478E+02 -0.72960357319E+03  0.74719252706E+03  0.00000000000E+00 0.  1.
          1    1    3    3  501    0  0.11152092249E+03  0.64681363273E+02 -0.21395265881E+03  0.24979258420E+03  0.00000000000E+00 0.  1.
         21    1    1    2  502  501  0.33608933744E+02  0.54087452045E+01 -0.19984616532E+02  0.39474040204E+02  0.00000000000E+00 0.  1.
<mgrwt>
<rscale>  1 0.30000000E+03</rscale>
<asrwt>0</asrwt>
<pdfrwt beam="1">  1        1 0.13257901E+00 0.30000000E+03</pdfrwt>
<pdfrwt beam="2">0</pdfrwt>
<totfact> 0.22155338E+01</totfact>
</mgrwt>
</event>
<event>
 6    1  0.1940992E-004  0.3000000E+03  0.7818608E-02  0.1093470E+00
          1   -1    0    0  502    0  0.00000000000E+00  0.00000000000E+00  0.42460742110E+02  0.42460742110E+02  0.00000000000E+00 0.  1.
         13   -1    0    0    0    0 -0.00000000000E+00 -0.00000000000E+00 -0.10000000000E+04  0.10000000000E+04  0.00000000000E+00 0.  1.
    9000005    2    1    2  501    0  0.14597139759E+02 -0.33328263648E+01 -0.97182747135E+03  0.10217644317E+04  0.31516620311E+03 0.  0.
         13    1    3    3    0    0  0.21537299608E+02  0.56693128727E+02 -0.95781772485E+03  0.95973577622E+03  0.00000000000E+00 0.  1.
          3    1    3    3  501    0 -0.69401598494E+01 -0.60025955092E+02 -0.14009746505E+02  0.62028655479E+02  0.00000000000E+00 0.  1.
         21    1    1    2  502  501 -0.14597139759E+02  0.33328263648E+01  0.14288213464E+02  0.20696310413E+02  0.00000000000E+00 0.  1.
<mgrwt>
<rscale>  1 0.30000000E+03</rscale>
<asrwt>0</asrwt>
<pdfrwt beam="1">  1        1 0.15440302E+00 0.30000000E+03</pdfrwt>
<pdfrwt beam="2">0</pdfrwt>
<totfact> 0.17067401E+01</totfact>
</mgrwt>
</event>
<event>
 6    1  0.1940992E-004  0.3000000E+03  0.7818608E-02  0.1093470E+00
          1   -1    0    0  502    0  0.00000000000E+00  0.00000000000E+00  0.34859051431E+02  0.34859051431E+02  0.00000000000E+00 0.  1.
         13   -1    0    0    0    0 -0.00000000000E+00 -0.00000000000E+00 -0.10000000000E+04  0.10000000000E+04  0.00000000000E+00 0.  1.
    9000005    2    1    2  501    0 -0.28369812275E+02 -0.23602257208E+01 -0.95053196833E+03  0.10028615638E+04  0.31844917386E+03 0.  0.
         13    1    3    3    0    0 -0.11426419756E+03  0.13376596183E+01 -0.89097722135E+03  0.89827529474E+03  0.00000000000E+00 0.  1.
          1    1    3    3  501    0  0.85894385281E+02 -0.36978853391E+01 -0.59554746979E+02  0.10458626902E+03  0.00000000000E+00 0.  1.
         21    1    1    2  502  501  0.28369812275E+02  0.23602257208E+01 -0.14608980242E+02  0.31997487677E+02  0.00000000000E+00 0.  1.
<mgrwt>
<rscale>  1 0.30000000E+03</rscale>
<asrwt>0</asrwt>
<pdfrwt beam="1">  1        1 0.12676045E+00 0.30000000E+03</pdfrwt>
<pdfrwt beam="2">0</pdfrwt>
<totfact> 0.23833974E+01</totfact>
</mgrwt>
</event>
<event>
 6    1  0.1940992E-004  0.3000000E+03  0.7818608E-02  0.1093470E+00
          3   -1    0    0  502    0  0.00000000000E+00  0.00000000000E+00  0.32241788878E+02  0.32241788878E+02  0.00000000000E+00 0.  1.
         13   -1    0    0    0    0 -0.00000000000E+00 -0.00000000000E+00 -0.10000000000E+04  0.10000000000E+04  0.00000000000E+00 0.  1.
    9000005    2    1    2  501    0 -0.10858870446E+02 -0.79645844825E+01 -0.95817890192E+03  0.10157156629E+04  0.33673453968E+03 0.  0.
         13    1    3    3    0    0 -0.72487951411E+02 -0.15767576378E+03 -0.54439864747E+03  0.57138956671E+03  0.00000000000E+00 0.  1.
          1    1    3    3  501    0  0.61629080966E+02  0.14971117930E+03 -0.41378025445E+03  0.44432609624E+03  0.00000000000E+00 0.  1.
         21    1    1    2  502  501  0.10858870446E+02  0.79645844825E+01 -0.95793092060E+01  0.16526125928E+02  0.00000000000E+00 0.  1.
<mgrwt>
<rscale>  1 0.30000000E+03</rscale>
<asrwt>0</asrwt>
<pdfrwt beam="1">  1        3 0.11724312E+00 0.30000000E+03</pdfrwt>
<pdfrwt beam="2">0</pdfrwt>
<totfact> 0.24892700E+00</totfact>
</mgrwt>
</event>
<event>
 6    1  0.1940992E-004  0.3000000E+03  0.7818608E-02  0.1093470E+00
          3   -1    0    0  502    0  0.00000000000E+00  0.00000000000E+00  0.27834181968E+02  0.27834181968E+02  0.00000000000E+00 0.  1.
         13   -1    0    0    0    0 -0.00000000000E+00 -0.00000000000E+00 -0.10000000000E+04  0.10000000000E+04  0.00000000000E+00 0.  1.
    9000005    2    1    2  501    0  0.58119295732E+01 -0.10413005614E+02 -0.94535031635E+03  0.99848660384E+03  0.32116361597E+03 0.  0.
         13    1    3    3    0    0  0.15457465703E+03 -0.35998672343E+02 -0.35008573083E+03  0.38438164360E+03  0.00000000000E+00 0.  1.
          1    1    3    3  501    0 -0.14876272745E+03  0.25585666729E+02 -0.59526458551E+03  0.61410496024E+03  0.00000000000E+00 0.  1.
         21    1    1    2  502  501 -0.58119295732E+01  0.10413005614E+02 -0.26815501684E+02  0.29347578126E+02  0.00000000000E+00 0.  1.
<mgrwt>
<rscale>  1 0.30000000E+03</rscale>
<asrwt>0</asrwt>
<pdfrwt beam="1">  1        3 0.10121542E+00 0.30000000E+03</pdfrwt>
<pdfrwt beam="2">0</pdfrwt>
<totfact> 0.37941366E+00</totfact>
</mgrwt>
</event>
<event>
 6    1  0.1940992E-004  0.3000000E+03  0.7818608E-02  0.1093470E+00
          1   -1    0    0  502    0  0.00000000000E+00  0.00000000000E+00  0.32228042681E+02  0.32228042681E+02  0.00000000000E+00 0.  1.
         13   -1    0    0    0    0 -0.00000000000E+00 -0.00000000000E+00 -0.10000000000E+04  0.10000000000E+04  0.00000000000E+00 0.  1.
    9000005    2    1    2  501    0 -0.19982201453E+02 -0.90337832601E+01 -0.94005706650E+03  0.99688666766E+03  0.33105111732E+03 0.  0.
         13    1    3    3    0    0 -0.63014074921E+02  0.13087345149E+03 -0.70630586045E+03  0.72108709768E+03  0.00000000000E+00 0.  1.
          1    1    3    3  501    0  0.43031873468E+02 -0.13990723475E+03 -0.23375120605E+03  0.27579956998E+03  0.00000000000E+00 0.  1.
         21    1    1    2  502  501  0.19982201453E+02  0.90337832601E+01 -0.27714890821E+02  0.35341375017E+02  0.00000000000E+00 0.  1.
<mgrwt>
<rscale>  1 0.30000000E+03</rscale>
<asrwt>0</asrwt>
<pdfrwt beam="1">  1        1 0.11719313E+00 0.30000000E+03</pdfrwt>
<pdfrwt beam="2">0</pdfrwt>
<totfact> 0.26969963E+01</totfact>
</mgrwt>
</event>
<event>
 6    1  0.1940992E-004  0.3000000E+03  0.7818608E-02  0.1093470E+00
          1   -1    0    0  502    0  0.00000000000E+00  0.00000000000E+00  0.37639775856E+02  0.37639775856E+02  0.00000000000E+00 0.  1.
         13   -1    0    0    0    0 -0.00000000000E+00 -0.00000000000E+00 -0.10000000000E+04  0.10000000000E+04  0.00000000000E+00 0.  1.
    9000005    2    1    2  501    0 -0.11324361735E+02 -0.23503728665E+02 -0.96192830626E+03  0.10115466162E+04  0.31183300636E+03 0.  0.
         13    1    3    3    0    0  0.97455486401E+02  0.96632849476E+01 -0.92498031497E+02  0.13471019537E+03  0.00000000000E+00 0.  1.
          1    1    3    3  501    0 -0.10877984814E+03 -0.33167013613E+02 -0.86943027476E+03  0.87683642079E+03  0.00000000000E+00 0.  1.
         21    1    1    2  502  501  0.11324361735E+02  0.23503728665E+02 -0.43191788518E+00  0.26093159697E+02  0.00000000000E+00 0.  1.
<mgrwt>
<rscale>  1 0.30000000E+03</rscale>
<asrwt>0</asrwt>
<pdfrwt beam="1">  1        1 0.13687220E+00 0.30000000E+03</pdfrwt>
<pdfrwt beam="2">0</pdfrwt>
<totfact> 0.21015095E+01</totfact>
</mgrwt>
</event>
<event>
 6    1  0.1940992E-004  0.3000000E+03  0.7818608E-02  0.1093470E+00
          1   -1    0    0  502    0  0.00000000000E+00  0.00000000000E+00  0.38407221903E+02  0.38407221903E+02  0.00000000000E+00 0.  1.
         13   -1    0    0    0    0 -0.00000000000E+00 -0.00000000000E+00 -0.10000000000E+04  0.10000000000E+04  0.00000000000E+00 0.  1.
    9000005    2    1    2  501    0 -0.39083159264E+02  0.12438208336E+02 -0.93295090605E+03  0.98838163646E+03  0.32375710621E+03 0.  0.
         13    1    3    3    0    0 -0.93470907203E+02 -0.32265451878E+02 -0.66703205883E+02  0.11927777477E+03  0.00000000000E+00 0.  1.
          1    1    3    3  501    0  0.54387747939E+02  0.44703660214E+02 -0.86624770017E+03  0.86910386169E+03  0.00000000000E+00 0.  1.
         21    1    1    2  502  501  0.39083159264E+02 -0.12438208336E+02 -0.28641872046E+02  0.50025585443E+02  0.00000000000E+00 0.  1.
<mgrwt>
<rscale>  1 0.30000000E+03</rscale>
<asrwt>0</asrwt>
<pdfrwt beam="1">  1        1 0.13966292E+00 0.30000000E+03</pdfrwt>
<pdfrwt beam="2">0</pdfrwt>
<totfact> 0.20314790E+01</totfact>
</mgrwt>
</event>
<event>
 6    1  0.1940992E-004  0.3000000E+03  0.7818608E-02  0.1093470E+00
          1   -1    0    0  502    0  0.00000000000E+00  0.00000000000E+00  0.31169807440E+02  0.31169807440E+02  0.00000000000E+00 0.  1.
         13   -1    0    0    0    0 -0.00000000000E+00 -0.00000000000E+00 -0.10000000000E+04  0.10000000000E+04  0.00000000000E+00 0.  1.
    9000005    2    1    2  501    0  0.57232581580E+01 -0.86327584558E+01 -0.94316770964E+03  0.10034959347E+04  0.34253683343E+03 0.  0.
         13    1    3    3    0    0  0.10964339089E+03 -0.33091402120E+02 -0.86150559234E+03  0.86908492088E+03  0.00000000000E+00 0.  1.
          1    1    3    3  501    0 -0.10392013273E+03  0.24458643664E+02 -0.81662117299E+02  0.13441101383E+03  0.00000000000E+00 0.  1.
         21    1    1    2  502  501 -0.57232581580E+01  0.86327584558E+01 -0.25662482917E+02  0.27673872732E+02  0.00000000000E+00 0. -1.
<mgrwt>
<rscale>  1 0.30000000E+03</rscale>
<asrwt>0</asrwt>
<pdfrwt beam="1">  1        1 0.11334499E+00 0.30000000E+03</pdfrwt>
<pdfrwt beam="2">0</pdfrwt>
<totfact> 0.28388899E+01</totfact>
</mgrwt>
</event>
<event>
 6    1  0.2882320E-004  0.3000000E+03  0.7818608E-02  0.1093470E+00
          1   -1    0    0  502    0  0.00000000000E+00  0.00000000000E+00  0.54848781912E+02  0.54848781912E+02  0.00000000000E+00 0.  1.
         13   -1    0    0    0    0 -0.00000000000E+00 -0.00000000000E+00 -0.10000000000E+04  0.10000000000E+04  0.00000000000E+00 0.  1.
    9000005    2    1    2  501    0  0.10141870152E+02  0.27916108071E+01 -0.94729880186E+03  0.10441127334E+04  0.43895982673E+03 0.  0.
         13    1    3    3    0    0 -0.16179184242E+03 -0.13565223569E+03 -0.36928121586E+03  0.42537835595E+03  0.00000000000E+00 0.  1.
          3    1    3    3  501    0  0.17193371257E+03  0.13844384650E+03 -0.57801758599E+03  0.61873437747E+03  0.00000000000E+00 0.  1.
         21    1    1    2  502  501 -0.10141870152E+02 -0.27916108071E+01  0.21475837687E+01  0.10736048487E+02  0.00000000000E+00 0. -1.
<mgrwt>
<rscale>  1 0.30000000E+03</rscale>
<asrwt>0</asrwt>
<pdfrwt beam="1">  1        1 0.19945054E+00 0.30000000E+03</pdfrwt>
<pdfrwt beam="2">0</pdfrwt>
<totfact> 0.10305220E+01</totfact>
</mgrwt>
</event>
<event>
 6    1  0.1940992E-004  0.3000000E+03  0.7818608E-02  0.1093470E+00
          1   -1    0    0  502    0  0.00000000000E+00  0.00000000000E+00  0.55885845218E+02  0.55885845218E+02  0.00000000000E+00 0.  1.
         13   -1    0    0    0    0 -0.00000000000E+00 -0.00000000000E+00 -0.10000000000E+04  0.10000000000E+04  0.00000000000E+00 0.  1.
    9000005    2    1    2  501    0  0.97697056978E+02  0.16748796068E+02 -0.86356208273E+03  0.92816007091E+03  0.32544801334E+03 0.  0.
         13    1    3    3    0    0  0.12556502171E+03  0.14875100448E+03 -0.61857809559E+03  0.64848461536E+03  0.00000000000E+00 0.  1.
          1    1    3    3  501    0 -0.27867964730E+02 -0.13200220841E+03 -0.24498398714E+03  0.27967545555E+03  0.00000000000E+00 0.  1.
         21    1    1    2  502  501 -0.97697056978E+02 -0.16748796068E+02 -0.80552072053E+02  0.12772577431E+03  0.00000000000E+00 0.  1.
<mgrwt>
<rscale>  1 0.30000000E+03</rscale>
<asrwt>0</asrwt>
<pdfrwt beam="1">  1        1 0.20322168E+00 0.30000000E+03</pdfrwt>
<pdfrwt beam="2">0</pdfrwt>
<totfact> 0.98888447E+00</totfact>
</mgrwt>
</event>
<event>
 6    1  0.1940992E-004  0.3000000E+03  0.7818608E-02  0.1093470E+00
          1   -1    0    0  502    0  0.00000000000E+00  0.00000000000E+00  0.29470303532E+02  0.29470303532E+02  0.00000000000E+00 0.  1.
         13   -1    0    0    0    0 -0.00000000000E+00 -0.00000000000E+00 -0.10000000000E+04  0.10000000000E+04  0.00000000000E+00 0.  1.
    9000005    2    1    2  501    0  0.13232413837E+02  0.48341944558E+00 -0.92195085898E+03  0.97911919707E+03  0.32940201157E+03 0.  0.
         13    1    3    3    0    0  0.39723095793E+02 -0.24420687152E+02  0.89736291579E+01  0.47484948359E+02  0.00000000000E+00 0.  1.
          3    1    3    3  501    0 -0.26490681956E+02  0.24904106598E+02 -0.93092448814E+03  0.93163424871E+03  0.00000000000E+00 0.  1.
         21    1    1    2  502  501 -0.13232413837E+02 -0.48341944558E+00 -0.48578837491E+02  0.50351106465E+02  0.00000000000E+00 0. -1.
<mgrwt>
<rscale>  1 0.30000000E+03</rscale>
<asrwt>0</asrwt>
<pdfrwt beam="1">  1        1 0.10716497E+00 0.30000000E+03</pdfrwt>
<pdfrwt beam="2">0</pdfrwt>
<totfact> 0.30898438E+01</totfact>
</mgrwt>
</event>
<event>
 6    1  0.1940992E-004  0.3000000E+03  0.7818608E-02  0.1093470E+00
          1   -1    0    0  502    0  0.00000000000E+00  0.00000000000E+00  0.35902125155E+02  0.35902125155E+02  0.00000000000E+00 0.  1.
         13   -1    0    0    0    0 -0.00000000000E+00 -0.00000000000E+00 -0.10000000000E+04  0.10000000000E+04  0.00000000000E+00 0.  1.
    9000005    2    1    2  501    0  0.12108634873E+02 -0.20392601459E+02 -0.95818379641E+03  0.10114592621E+04  0.32306527803E+03 0.  0.
         13    1    3    3    0    0  0.72802211579E+02  0.74062134009E+02 -0.84736595561E+03  0.85370628698E+03  0.00000000000E+00 0.  1.
          3    1    3    3  501    0 -0.60693576705E+02 -0.94454735468E+02 -0.11081784080E+03  0.15775297507E+03  0.00000000000E+00 0.  1.
         21    1    1    2  502  501 -0.12108634873E+02  0.20392601459E+02 -0.59140784369E+01  0.24442863100E+02  0.00000000000E+00 0. -1.
<mgrwt>
<rscale>  1 0.30000000E+03</rscale>
<asrwt>0</asrwt>
<pdfrwt beam="1">  1        1 0.13055346E+00 0.30000000E+03</pdfrwt>
<pdfrwt beam="2">0</pdfrwt>
<totfact> 0.22721734E+01</totfact>
</mgrwt>
</event>
<event>
 6    1  0.1940992E-004  0.3000000E+03  0.7818608E-02  0.1093470E+00
          1   -1    0    0  502    0  0.00000000000E+00  0.00000000000E+00  0.26564714389E+02  0.26564714389E+02  0.00000000000E+00 0.  1.
         13   -1    0    0    0    0 -0.00000000000E+00 -0.00000000000E+00 -0.10000000000E+04  0.10000000000E+04  0.00000000000E+00 0.  1.
    9000005    2    1    2  501    0 -0.53588563845E+01  0.68705117934E+01 -0.94288547245E+03  0.99479661155E+03  0.31703527077E+03 0.  0.
         13    1    3    3    0    0 -0.25414368624E+02 -0.33107223762E+02 -0.94876759123E+03  0.94968516918E+03  0.00000000000E+00 0.  1.
          1    1    3    3  501    0  0.20055512239E+02  0.39977735555E+02  0.58821187754E+01  0.45111442368E+02  0.00000000000E+00 0.  1.
         21    1    1    2  502  501  0.53588563845E+01 -0.68705117934E+01 -0.30549813160E+02  0.31768102842E+02  0.00000000000E+00 0. -1.
<mgrwt>
<rscale>  1 0.30000000E+03</rscale>
<asrwt>0</asrwt>
<pdfrwt beam="1">  1        1 0.96599165E-01 0.30000000E+03</pdfrwt>
<pdfrwt beam="2">0</pdfrwt>
<totfact> 0.35993402E+01</totfact>
</mgrwt>
</event>
<event>
 6    1  0.1940992E-004  0.3000000E+03  0.7818608E-02  0.1093470E+00
          1   -1    0    0  502    0  0.00000000000E+00  0.00000000000E+00  0.37875143955E+02  0.37875143955E+02  0.00000000000E+00 0.  1.
         13   -1    0    0    0    0 -0.00000000000E+00 -0.00000000000E+00 -0.10000000000E+04  0.10000000000E+04  0.00000000000E+00 0.  1.
    9000005    2    1    2  501    0  0.21931561994E+02  0.44657862409E+02 -0.89647023190E+03  0.95549888671E+03  0.32686989419E+03 0.  0.
         13    1    3    3    0    0  0.15290799967E+03  0.10139924925E+03 -0.42544126546E+03  0.46331731510E+03  0.00000000000E+00 0.  1.
          1    1    3    3  501    0 -0.13097643768E+03 -0.56741386841E+02 -0.47102896644E+03  0.49218157161E+03  0.00000000000E+00 0.  1.
         21    1    1    2  502  501 -0.21931561994E+02 -0.44657862409E+02 -0.65654624144E+02  0.82376257246E+02  0.00000000000E+00 0. -1.
<mgrwt>
<rscale>  1 0.30000000E+03</rscale>
<asrwt>0</asrwt>
<pdfrwt beam="1">  1        1 0.13772809E+00 0.30000000E+03</pdfrwt>
<pdfrwt beam="2">0</pdfrwt>
<totfact> 0.20797078E+01</totfact>
</mgrwt>
</event>
<event>
 6    1  0.1940992E-004  0.3000000E+03  0.7818608E-02  0.1093470E+00
          1   -1    0    0  502    0  0.00000000000E+00  0.00000000000E+00  0.48477694532E+02  0.48477694532E+02  0.00000000000E+00 0.  1.
         13   -1    0    0    0    0 -0.00000000000E+00 -0.00000000000E+00 -0.10000000000E+04  0.10000000000E+04  0.00000000000E+00 0.  1.
    9000005    2    1    2  501    0 -0.11459951338E+02  0.12465636813E+03 -0.75282117587E+03  0.81363161834E+03  0.28211016806E+03 0.  0.
         13    1    3    3    0    0  0.98119817287E+02  0.10799500062E+02 -0.94656621240E+02  0.13676258147E+03  0.00000000000E+00 0.  1.
          3    1    3    3  501    0 -0.10957976862E+03  0.11385686807E+03 -0.65816455463E+03  0.67686903687E+03  0.00000000000E+00 0.  1.
         21    1    1    2  502  501  0.11459951338E+02 -0.12465636813E+03 -0.19870112960E+03  0.23484607620E+03  0.00000000000E+00 0.  1.
<mgrwt>
<rscale>  1 0.30000000E+03</rscale>
<asrwt>0</asrwt>
<pdfrwt beam="1">  1        1 0.17628290E+00 0.30000000E+03</pdfrwt>
<pdfrwt beam="2">0</pdfrwt>
<totfact> 0.13315417E+01</totfact>
</mgrwt>
</event>
<event>
 6    1  0.1940992E-004  0.3000000E+03  0.7818608E-02  0.1093470E+00
          1   -1    0    0  502    0  0.00000000000E+00  0.00000000000E+00  0.35305849312E+02  0.35305849312E+02  0.00000000000E+00 0.  1.
         13   -1    0    0    0    0 -0.00000000000E+00 -0.00000000000E+00 -0.10000000000E+04  0.10000000000E+04  0.00000000000E+00 0.  1.
    9000005    2    1    2  501    0 -0.10954518215E+01 -0.10283502967E+02 -0.96025057414E+03  0.10240499255E+04  0.35565451545E+03 0.  0.
         13    1    3    3    0    0 -0.17414290759E+03  0.19706554440E+02 -0.56451421231E+03  0.59109254475E+03  0.00000000000E+00 0.  1.
          3    1    3    3  501    0  0.17304745577E+03 -0.29990057407E+02 -0.39573636183E+03  0.43295738077E+03  0.00000000000E+00 0.  1.
         21    1    1    2  502  501  0.10954518215E+01  0.10283502967E+02 -0.44435765479E+01  0.11255923796E+02  0.00000000000E+00 0. -1.
<mgrwt>
<rscale>  1 0.30000000E+03</rscale>
<asrwt>0</asrwt>
<pdfrwt beam="1">  1        1 0.12838518E+00 0.30000000E+03</pdfrwt>
<pdfrwt beam="2">0</pdfrwt>
<totfact> 0.23349135E+01</totfact>
</mgrwt>
</event>
<event>
 6    1  0.1940992E-004  0.3000000E+03  0.7818608E-02  0.1093470E+00
          1   -1    0    0  502    0  0.00000000000E+00  0.00000000000E+00  0.52635108623E+02  0.52635108623E+02  0.00000000000E+00 0.  1.
         13   -1    0    0    0    0 -0.00000000000E+00 -0.00000000000E+00 -0.10000000000E+04  0.10000000000E+04  0.00000000000E+00 0.  1.
    9000005    2    1    2  501    0  0.34580849539E+02  0.12284596917E+02 -0.95927645568E+03  0.10140523166E+04  0.32671705788E+03 0.  0.
         13    1    3    3    0    0 -0.30206803776E+02  0.76013084493E+02 -0.90398098911E+03  0.90767398810E+03  0.00000000000E+00 0.  1.
          1    1    3    3  501    0  0.64787653315E+02 -0.63728487576E+02 -0.55295466566E+02  0.10637832850E+03  0.00000000000E+00 0.  1.
         21    1    1    2  502  501 -0.34580849539E+02 -0.12284596917E+02  0.11911564299E+02  0.38582792023E+02  0.00000000000E+00 0. -1.
<mgrwt>
<rscale>  1 0.30000000E+03</rscale>
<asrwt>0</asrwt>
<pdfrwt beam="1">  1        1 0.19140080E+00 0.30000000E+03</pdfrwt>
<pdfrwt beam="2">0</pdfrwt>
<totfact> 0.11258453E+01</totfact>
</mgrwt>
</event>
<event>
 6    1  0.1940992E-004  0.3000000E+03  0.7818608E-02  0.1093470E+00
          1   -1    0    0  502    0  0.00000000000E+00  0.00000000000E+00  0.31517060247E+02  0.31517060247E+02  0.00000000000E+00 0.  1.
         13   -1    0    0    0    0 -0.00000000000E+00 -0.00000000000E+00 -0.10000000000E+04  0.10000000000E+04  0.00000000000E+00 0.  1.
    9000005    2    1    2  501    0  0.84567509248E+01  0.18310433796E+02 -0.94413312224E+03  0.99989899208E+03  0.32863939694E+03 0.  0.
         13    1    3    3    0    0 -0.53060042722E+02  0.15054812187E+03 -0.30398401128E+03  0.34334586680E+03  0.00000000000E+00 0.  1.
          3    1    3    3  501    0  0.61516793647E+02 -0.13223768808E+03 -0.64014911096E+03  0.65655312528E+03  0.00000000000E+00 0.  1.
         21    1    1    2  502  501 -0.84567509248E+01 -0.18310433796E+02 -0.24349817511E+02  0.31618068170E+02  0.00000000000E+00 0. -1.
<mgrwt>
<rscale>  1 0.30000000E+03</rscale>
<asrwt>0</asrwt>
<pdfrwt beam="1">  1        1 0.11460773E+00 0.30000000E+03</pdfrwt>
<pdfrwt beam="2">0</pdfrwt>
<totfact> 0.27911980E+01</totfact>
</mgrwt>
</event>
<event>
 6    1  0.1940992E-004  0.3000000E+03  0.7818608E-02  0.1093470E+00
          1   -1    0    0  502    0  0.00000000000E+00  0.00000000000E+00  0.44957209696E+02  0.44957209696E+02  0.00000000000E+00 0.  1.
         13   -1    0    0    0    0 -0.00000000000E+00 -0.00000000000E+00 -0.10000000000E+04  0.10000000000E+04  0.00000000000E+00 0.  1.
    9000005    2    1    2  501    0 -0.63124676268E+02  0.20378448019E+02 -0.90292217150E+03  0.96059747521E+03  0.32105927132E+03 0.  0.
         13    1    3    3    0    0  0.22775569020E+02 -0.10401882302E+03 -0.69730154768E+03  0.70538506540E+03  0.00000000000E+00 0.  1.
          3    1    3    3  501    0 -0.85900245288E+02  0.12439727104E+03 -0.20562062382E+03  0.25521240981E+03  0.00000000000E+00 0.  1.
         21    1    1    2  502  501  0.63124676268E+02 -0.20378448019E+02 -0.52120618802E+02  0.84359734482E+02  0.00000000000E+00 0.  1.
<mgrwt>
<rscale>  1 0.30000000E+03</rscale>
<asrwt>0</asrwt>
<pdfrwt beam="1">  1        1 0.16348111E+00 0.30000000E+03</pdfrwt>
<pdfrwt beam="2">0</pdfrwt>
<totfact> 0.15380263E+01</totfact>
</mgrwt>
</event>
<event>
 6    1  0.1940992E-004  0.3000000E+03  0.7818608E-02  0.1093470E+00
          1   -1    0    0  502    0  0.00000000000E+00  0.00000000000E+00  0.44001156232E+02  0.44001156232E+02  0.00000000000E+00 0.  1.
         13   -1    0    0    0    0 -0.00000000000E+00 -0.00000000000E+00 -0.10000000000E+04  0.10000000000E+04  0.00000000000E+00 0.  1.
    9000005    2    1    2  501    0  0.17627294521E+02  0.20867750601E+02 -0.96211307954E+03  0.10160088643E+04  0.32537094219E+03 0.  0.
         13    1    3    3    0    0  0.15765226656E+03  0.71390537774E+02 -0.60087397751E+03  0.62530023419E+03  0.00000000000E+00 0.  1.
          3    1    3    3  501    0 -0.14002497204E+03 -0.50522787173E+02 -0.36123910204E+03  0.39070863013E+03  0.00000000000E+00 0.  1.
         21    1    1    2  502  501 -0.17627294521E+02 -0.20867750601E+02  0.61142357760E+01  0.27992291911E+02  0.00000000000E+00 0.  1.
<mgrwt>
<rscale>  1 0.30000000E+03</rscale>
<asrwt>0</asrwt>
<pdfrwt beam="1">  1        1 0.16000454E+00 0.30000000E+03</pdfrwt>
<pdfrwt beam="2">0</pdfrwt>
<totfact> 0.16002214E+01</totfact>
</mgrwt>
</event>
<event>
 6    1  0.1940992E-004  0.3000000E+03  0.7818608E-02  0.1093470E+00
          1   -1    0    0  502    0  0.00000000000E+00  0.00000000000E+00  0.25396709830E+02  0.25396709830E+02  0.00000000000E+00 0.  1.
         13   -1    0    0    0    0 -0.00000000000E+00 -0.00000000000E+00 -0.10000000000E+04  0.10000000000E+04  0.00000000000E+00 0.  1.
    9000005    2    1    2  501    0  0.69819968311E+01  0.49738077089E+01 -0.95477837814E+03  0.10037977705E+04  0.30973331378E+03 0.  0.
         13    1    3    3    0    0 -0.20283125844E+02 -0.54594181366E+02 -0.93291986744E+03  0.93473601027E+03  0.00000000000E+00 0.  1.
          1    1    3    3  501    0  0.27265122675E+02  0.59567989075E+02 -0.21858510700E+02  0.69061760236E+02  0.00000000000E+00 0.  1.
         21    1    1    2  502  501 -0.69819968311E+01 -0.49738077089E+01 -0.19824912034E+02  0.21598939327E+02  0.00000000000E+00 0.  1.
<mgrwt>
<rscale>  1 0.30000000E+03</rscale>
<asrwt>0</asrwt>
<pdfrwt beam="1">  1        1 0.92351867E-01 0.30000000E+03</pdfrwt>
<pdfrwt beam="2">0</pdfrwt>
<totfact> 0.38396373E+01</totfact>
</mgrwt>
</event>
<event>
 6    1  0.1940992E-004  0.3000000E+03  0.7818608E-02  0.1093470E+00
          1   -1    0    0  502    0  0.00000000000E+00  0.00000000000E+00  0.32633884812E+02  0.32633884812E+02  0.00000000000E+00 0.  1.
         13   -1    0    0    0    0 -0.00000000000E+00 -0.00000000000E+00 -0.10000000000E+04  0.10000000000E+04  0.00000000000E+00 0.  1.
    9000005    2    1    2  501    0 -0.28107357307E+01 -0.16125140932E+02 -0.96866908949E+03  0.10162138316E+04  0.30676183953E+03 0.  0.
         13    1    3    3    0    0 -0.72663321026E+02 -0.13908120448E+03 -0.62911568119E+03  0.64839037623E+03  0.00000000000E+00 0.  1.
          3    1    3    3  501    0  0.69852585295E+02  0.12295606354E+03 -0.33955340830E+03  0.36782345537E+03  0.00000000000E+00 0.  1.
         21    1    1    2  502  501  0.28107357307E+01  0.16125140932E+02  0.13029743045E+01  0.16420053212E+02  0.00000000000E+00 0.  1.
<mgrwt>
<rscale>  1 0.30000000E+03</rscale>
<asrwt>0</asrwt>
<pdfrwt beam="1">  1        1 0.11866892E+00 0.30000000E+03</pdfrwt>
<pdfrwt beam="2">0</pdfrwt>
<totfact> 0.26451827E+01</totfact>
</mgrwt>
</event>
<event>
 6    1  0.1940992E-004  0.3000000E+03  0.7818608E-02  0.1093470E+00
          1   -1    0    0  502    0  0.00000000000E+00  0.00000000000E+00  0.37376573636E+02  0.37376573636E+02  0.00000000000E+00 0.  1.
         13   -1    0    0    0    0 -0.00000000000E+00 -0.00000000000E+00 -0.10000000000E+04  0.10000000000E+04  0.00000000000E+00 0.  1.
    9000005    2    1    2  501    0  0.44174142815E+00  0.33272114696E+02 -0.93480369273E+03  0.99400415923E+03  0.33627235372E+03 0.  0.
         13    1    3    3    0    0  0.51076270475E+02  0.14289516689E+03 -0.20931770216E+03  0.25853764632E+03  0.00000000000E+00 0.  1.
          1    1    3    3  501    0 -0.50634529047E+02 -0.10962305219E+03 -0.72548599056E+03  0.73546651290E+03  0.00000000000E+00 0.  1.
         21    1    1    2  502  501 -0.44174142815E+00 -0.33272114696E+02 -0.27819733639E+02  0.43372414408E+02  0.00000000000E+00 0.  1.
<mgrwt>
<rscale>  1 0.30000000E+03</rscale>
<asrwt>0</asrwt>
<pdfrwt beam="1">  1        1 0.13591510E+00 0.30000000E+03</pdfrwt>
<pdfrwt beam="2">0</pdfrwt>
<totfact> 0.21262409E+01</totfact>
</mgrwt>
</event>
<event>
 6    1  0.1940992E-004  0.3000000E+03  0.7818608E-02  0.1093470E+00
          1   -1    0    0  502    0  0.00000000000E+00  0.00000000000E+00  0.32372842546E+02  0.32372842546E+02  0.00000000000E+00 0.  1.
         13   -1    0    0    0    0 -0.00000000000E+00 -0.00000000000E+00 -0.10000000000E+04  0.10000000000E+04  0.00000000000E+00 0.  1.
    9000005    2    1    2  501    0 -0.42934106353E+01  0.18631401670E+02 -0.95627357333E+03  0.10101362426E+04  0.32488539384E+03 0.  0.
         13    1    3    3    0    0 -0.94608387627E+02 -0.65752299763E+02 -0.81210228905E+03  0.82023425911E+03  0.00000000000E+00 0.  1.
          3    1    3    3  501    0  0.90314976992E+02  0.84383701433E+02 -0.14417128428E+03  0.18990198353E+03  0.00000000000E+00 0.  1.
         21    1    1    2  502  501  0.42934106353E+01 -0.18631401670E+02 -0.11353584121E+02  0.22236599908E+02  0.00000000000E+00 0.  1.
<mgrwt>
<rscale>  1 0.30000000E+03</rscale>
<asrwt>0</asrwt>
<pdfrwt beam="1">  1        1 0.11771968E+00 0.30000000E+03</pdfrwt>
<pdfrwt beam="2">0</pdfrwt>
<totfact> 0.26783519E+01</totfact>
</mgrwt>
</event>
<event>
 6    1  0.1940992E-004  0.3000000E+03  0.7818608E-02  0.1093470E+00
          1   -1    0    0  502    0  0.00000000000E+00  0.00000000000E+00  0.41894585035E+02  0.41894585035E+02  0.00000000000E+00 0.  1.
         13   -1    0    0    0    0 -0.00000000000E+00 -0.00000000000E+00 -0.10000000000E+04  0.10000000000E+04  0.00000000000E+00 0.  1.
    9000005    2    1    2  501    0  0.10354923873E+02  0.18074650286E+02 -0.94121894333E+03  0.10150790978E+04  0.37955046842E+03 0.  0.
         13    1    3    3    0    0 -0.87445493224E+02  0.93339163202E+02 -0.93522418617E+02  0.15844669910E+03  0.00000000000E+00 0.  1.
          3    1    3    3  501    0  0.97800417097E+02 -0.75264512916E+02 -0.84769652471E+03  0.85663239869E+03  0.00000000000E+00 0.  1.
         21    1    1    2  502  501 -0.10354923873E+02 -0.18074650286E+02 -0.16886471638E+02  0.26815487238E+02  0.00000000000E+00 0.  1.
<mgrwt>
<rscale>  1 0.30000000E+03</rscale>
<asrwt>0</asrwt>
<pdfrwt beam="1">  1        1 0.15234427E+00 0.30000000E+03</pdfrwt>
<pdfrwt beam="2">0</pdfrwt>
<totfact> 0.17480092E+01</totfact>
</mgrwt>
</event>
<event>
 6    1  0.1940992E-004  0.3000000E+03  0.7818608E-02  0.1093470E+00
          1   -1    0    0  502    0  0.00000000000E+00  0.00000000000E+00  0.45858983992E+02  0.45858983992E+02  0.00000000000E+00 0.  1.
         13   -1    0    0    0    0 -0.00000000000E+00 -0.00000000000E+00 -0.10000000000E+04  0.10000000000E+04  0.00000000000E+00 0.  1.
    9000005    2    1    2  501    0  0.10075251389E+02 -0.11214983509E+02 -0.97503282866E+03  0.10200955529E+04  0.29946391025E+03 0.  0.
         13    1    3    3    0    0 -0.14440629298E+03 -0.95383905134E+01 -0.43859615350E+03  0.46185576126E+03  0.00000000000E+00 0.  1.
          1    1    3    3  501    0  0.15448154437E+03 -0.16765929960E+01 -0.53643667516E+03  0.55823979164E+03  0.00000000000E+00 0.  1.
         21    1    1    2  502  501 -0.10075251389E+02  0.11214983509E+02  0.20891812652E+02  0.25763431090E+02  0.00000000000E+00 0.  1.
<mgrwt>
<rscale>  1 0.30000000E+03</rscale>
<asrwt>0</asrwt>
<pdfrwt beam="1">  1        1 0.16676029E+00 0.30000000E+03</pdfrwt>
<pdfrwt beam="2">0</pdfrwt>
<totfact> 0.14818970E+01</totfact>
</mgrwt>
</event>
<event>
 6    1  0.1940992E-004  0.3000000E+03  0.7818608E-02  0.1093470E+00
          1   -1    0    0  502    0  0.00000000000E+00  0.00000000000E+00  0.33665443016E+02  0.33665443016E+02  0.00000000000E+00 0.  1.
         13   -1    0    0    0    0 -0.00000000000E+00 -0.00000000000E+00 -0.10000000000E+04  0.10000000000E+04  0.00000000000E+00 0.  1.
    9000005    2    1    2  501    0  0.41624434890E+02  0.40233463166E+02 -0.72483960203E+03  0.78532869905E+03  0.29664354322E+03 0.  0.
         13    1    3    3    0    0  0.30470773356E+02 -0.47404322955E+02 -0.68685720792E+03  0.68916504695E+03  0.00000000000E+00 0.  1.
          3    1    3    3  501    0  0.11153661533E+02  0.87637786121E+02 -0.37982394109E+02  0.96163652094E+02  0.00000000000E+00 0.  1.
         21    1    1    2  502  501 -0.41624434890E+02 -0.40233463166E+02 -0.24149495495E+03  0.24833674397E+03  0.00000000000E+00 0.  1.
<mgrwt>
<rscale>  1 0.30000000E+03</rscale>
<asrwt>0</asrwt>
<pdfrwt beam="1">  1        1 0.12242005E+00 0.30000000E+03</pdfrwt>
<pdfrwt beam="2">0</pdfrwt>
<totfact> 0.25193829E+01</totfact>
</mgrwt>
</event>
<event>
 6    1  0.1940992E-004  0.3000000E+03  0.7818608E-02  0.1093470E+00
          1   -1    0    0  502    0  0.00000000000E+00  0.00000000000E+00  0.50213483857E+02  0.50213483857E+02  0.00000000000E+00 0.  1.
         13   -1    0    0    0    0 -0.00000000000E+00 -0.00000000000E+00 -0.10000000000E+04  0.10000000000E+04  0.00000000000E+00 0.  1.
    9000005    2    1    2  501    0 -0.12000129269E+02  0.36730719939E+02 -0.95526571775E+03  0.10111856663E+04  0.32934892047E+03 0.  0.
         13    1    3    3    0    0  0.74600005880E+02  0.11898051310E+03 -0.18789626767E+03  0.23457734498E+03  0.00000000000E+00 0.  1.
          3    1    3    3  501    0 -0.86600135149E+02 -0.82249793165E+02 -0.76736945009E+03  0.77660832136E+03  0.00000000000E+00 0.  1.
         21    1    1    2  502  501  0.12000129269E+02 -0.36730719939E+02  0.54792016091E+01  0.39027817515E+02  0.00000000000E+00 0.  1.
<mgrwt>
<rscale>  1 0.30000000E+03</rscale>
<asrwt>0</asrwt>
<pdfrwt beam="1">  1        1 0.18259487E+00 0.30000000E+03</pdfrwt>
<pdfrwt beam="2">0</pdfrwt>
<totfact> 0.12411052E+01</totfact>
</mgrwt>
</event>
<event>
 6    1  0.1940992E-004  0.3000000E+03  0.7818608E-02  0.1093470E+00
          1   -1    0    0  502    0  0.00000000000E+00  0.00000000000E+00  0.28759253772E+02  0.28759253772E+02  0.00000000000E+00 0.  1.
         13   -1    0    0    0    0 -0.00000000000E+00 -0.00000000000E+00 -0.10000000000E+04  0.10000000000E+04  0.00000000000E+00 0.  1.
    9000005    2    1    2  501    0  0.17479358473E+02  0.77431748785E+01 -0.92843583383E+03  0.98187913799E+03  0.31894836473E+03 0.  0.
         13    1    3    3    0    0 -0.23552895361E+02 -0.82316487527E+02 -0.52635621301E+02  0.10050498310E+03  0.00000000000E+00 0.  1.
          1    1    3    3  501    0  0.41032253834E+02  0.90059662406E+02 -0.87580021253E+03  0.88137415489E+03  0.00000000000E+00 0.  1.
         21    1    1    2  502  501 -0.17479358473E+02 -0.77431748785E+01 -0.42804912399E+02  0.46880115777E+02  0.00000000000E+00 0. -1.
<mgrwt>
<rscale>  1 0.30000000E+03</rscale>
<asrwt>0</asrwt>
<pdfrwt beam="1">  1        1 0.10457933E+00 0.30000000E+03</pdfrwt>
<pdfrwt beam="2">0</pdfrwt>
<totfact> 0.32043083E+01</totfact>
</mgrwt>
</event>
<event>
 6    1  0.1940992E-004  0.3000000E+03  0.7818608E-02  0.1093470E+00
          1   -1    0    0  502    0  0.00000000000E+00  0.00000000000E+00  0.28007008764E+02  0.28007008764E+02  0.00000000000E+00 0.  1.
         13   -1    0    0    0    0 -0.00000000000E+00 -0.00000000000E+00 -0.10000000000E+04  0.10000000000E+04  0.00000000000E+00 0.  1.
    9000005    2    1    2  501    0  0.46994032096E+01 -0.13157095868E+02 -0.97179077347E+03  0.10140343764E+04  0.28929779749E+03 0.  0.
         13    1    3    3    0    0 -0.70726457989E+02 -0.86794246922E+02 -0.82912642002E+03  0.83665171579E+03  0.00000000000E+00 0.  1.
          1    1    3    3  501    0  0.75425861199E+02  0.73637151055E+02 -0.14266435345E+03  0.17738266065E+03  0.00000000000E+00 0.  1.
         21    1    1    2  502  501 -0.46994032096E+01  0.13157095868E+02 -0.20221776854E+00  0.13972632330E+02  0.00000000000E+00 0.  1.
<mgrwt>
<rscale>  1 0.30000000E+03</rscale>
<asrwt>0</asrwt>
<pdfrwt beam="1">  1        1 0.10184388E+00 0.30000000E+03</pdfrwt>
<pdfrwt beam="2">0</pdfrwt>
<totfact> 0.33322181E+01</totfact>
</mgrwt>
</event>
<event>
 6    1  0.1940992E-004  0.3000000E+03  0.7818608E-02  0.1093470E+00
          1   -1    0    0  502    0  0.00000000000E+00  0.00000000000E+00  0.40760820127E+02  0.40760820127E+02  0.00000000000E+00 0.  1.
         13   -1    0    0    0    0 -0.00000000000E+00 -0.00000000000E+00 -0.10000000000E+04  0.10000000000E+04  0.00000000000E+00 0.  1.
    9000005    2    1    2  501    0  0.50444506756E+02  0.70836375030E+02 -0.85705775065E+03  0.90658375515E+03  0.28246004470E+03 0.  0.
         13    1    3    3    0    0  0.69075098313E+02 -0.50446049911E+02 -0.70965855550E+03  0.71479468280E+03  0.00000000000E+00 0.  1.
          3    1    3    3  501    0 -0.18630591557E+02  0.12128242494E+03 -0.14739919515E+03  0.19178907235E+03  0.00000000000E+00 0.  1.
         21    1    1    2  502  501 -0.50444506756E+02 -0.70836375030E+02 -0.10218142922E+03  0.13417706498E+03  0.00000000000E+00 0.  1.
<mgrwt>
<rscale>  1 0.30000000E+03</rscale>
<asrwt>0</asrwt>
<pdfrwt beam="1">  1        1 0.14822148E+00 0.30000000E+03</pdfrwt>
<pdfrwt beam="2">0</pdfrwt>
<totfact> 0.18343932E+01</totfact>
</mgrwt>
</event>
<event>
 6    1  0.1940992E-004  0.3000000E+03  0.7818608E-02  0.1093470E+00
          3   -1    0    0  502    0  0.00000000000E+00  0.00000000000E+00  0.32612270890E+02  0.32612270890E+02  0.00000000000E+00 0.  1.
         13   -1    0    0    0    0 -0.00000000000E+00 -0.00000000000E+00 -0.10000000000E+04  0.10000000000E+04  0.00000000000E+00 0.  1.
    9000005    2    1    2  501    0 -0.29755805012E+02 -0.54010937867E+01 -0.90303062779E+03  0.96150378872E+03  0.32880182672E+03 0.  0.
         13    1    3    3    0    0 -0.42997288301E+02 -0.15847878936E+03 -0.33531971317E+03  0.37336791977E+03  0.00000000000E+00 0.  1.
          3    1    3    3  501    0  0.13241483289E+02  0.15307769557E+03 -0.56771091463E+03  0.58813586895E+03  0.00000000000E+00 0.  1.
         21    1    1    2  502  501  0.29755805012E+02  0.54010937867E+01 -0.64357101318E+02  0.71108482167E+02  0.00000000000E+00 0.  1.
<mgrwt>
<rscale>  1 0.30000000E+03</rscale>
<asrwt>0</asrwt>
<pdfrwt beam="1">  1        3 0.11859033E+00 0.30000000E+03</pdfrwt>
<pdfrwt beam="2">0</pdfrwt>
<totfact> 0.24015976E+00</totfact>
</mgrwt>
</event>
<event>
 6    1  0.1940992E-004  0.3000000E+03  0.7818608E-02  0.1093470E+00
          1   -1    0    0  502    0  0.00000000000E+00  0.00000000000E+00  0.45200185058E+02  0.45200185058E+02  0.00000000000E+00 0.  1.
         13   -1    0    0    0    0 -0.00000000000E+00 -0.00000000000E+00 -0.10000000000E+04  0.10000000000E+04  0.00000000000E+00 0.  1.
    9000005    2    1    2  501    0  0.26229502523E+02 -0.52804198393E+02 -0.91774782323E+03  0.97556456012E+03  0.32555932447E+03 0.  0.
         13    1    3    3    0    0 -0.53355823623E+02  0.47741642022E+02 -0.79445878534E+03  0.79767842512E+03  0.00000000000E+00 0.  1.
          1    1    3    3  501    0  0.79585326146E+02 -0.10054584041E+03 -0.12328903790E+03  0.17788613501E+03  0.00000000000E+00 0.  1.
         21    1    1    2  502  501 -0.26229502523E+02  0.52804198393E+02 -0.37051991711E+02  0.69635624936E+02  0.00000000000E+00 0.  1.
<mgrwt>
<rscale>  1 0.30000000E+03</rscale>
<asrwt>0</asrwt>
<pdfrwt beam="1">  1        1 0.16436466E+00 0.30000000E+03</pdfrwt>
<pdfrwt beam="2">0</pdfrwt>
<totfact> 0.15226669E+01</totfact>
</mgrwt>
</event>
<event>
 6    1  0.1940992E-004  0.3000000E+03  0.7818608E-02  0.1093470E+00
          1   -1    0    0  502    0  0.00000000000E+00  0.00000000000E+00  0.24131667277E+02  0.24131667277E+02  0.00000000000E+00 0.  1.
         13   -1    0    0    0    0 -0.00000000000E+00 -0.00000000000E+00 -0.10000000000E+04  0.10000000000E+04  0.00000000000E+00 0.  1.
    9000005    2    1    2  501    0  0.15012228123E+02 -0.36949554702E+01 -0.93685907395E+03  0.98217047141E+03  0.29447392204E+03 0.  0.
         13    1    3    3    0    0  0.81680029005E+02  0.54715792944E+02 -0.98601350367E+02  0.13923961875E+03  0.00000000000E+00 0.  1.
          1    1    3    3  501    0 -0.66667800882E+02 -0.58410748414E+02 -0.83825772359E+03  0.84293085266E+03  0.00000000000E+00 0.  1.
         21    1    1    2  502  501 -0.15012228123E+02  0.36949554702E+01 -0.39009258769E+02  0.41961195870E+02  0.00000000000E+00 0.  1.
<mgrwt>
<rscale>  1 0.30000000E+03</rscale>
<asrwt>0</asrwt>
<pdfrwt beam="1">  1        1 0.87751702E-01 0.30000000E+03</pdfrwt>
<pdfrwt beam="2">0</pdfrwt>
<totfact> 0.41281393E+01</totfact>
</mgrwt>
</event>
<event>
 6    1  0.1940992E-004  0.3000000E+03  0.7818608E-02  0.1093470E+00
          1   -1    0    0  502    0  0.00000000000E+00  0.00000000000E+00  0.31606729389E+02  0.31606729389E+02  0.00000000000E+00 0.  1.
         13   -1    0    0    0    0 -0.00000000000E+00 -0.00000000000E+00 -0.10000000000E+04  0.10000000000E+04  0.00000000000E+00 0.  1.
    9000005    2    1    2  501    0 -0.10538415845E+02 -0.14083746014E+01 -0.96648176325E+03  0.10208041562E+04  0.32839166380E+03 0.  0.
         13    1    3    3    0    0  0.15469163762E+03 -0.54741603841E+01 -0.35295479453E+03  0.38540440600E+03  0.00000000000E+00 0.  1.
          1    1    3    3  501    0 -0.16523005347E+03  0.40657857827E+01 -0.61352696872E+03  0.63539975018E+03  0.00000000000E+00 0.  1.
         21    1    1    2  502  501  0.10538415845E+02  0.14083746014E+01 -0.19115073616E+01  0.10802573209E+02  0.00000000000E+00 0.  1.
<mgrwt>
<rscale>  1 0.30000000E+03</rscale>
<asrwt>0</asrwt>
<pdfrwt beam="1">  1        1 0.11493380E+00 0.30000000E+03</pdfrwt>
<pdfrwt beam="2">0</pdfrwt>
<totfact> 0.27790667E+01</totfact>
</mgrwt>
</event>
<event>
 6    1  0.1940992E-004  0.3000000E+03  0.7818608E-02  0.1093470E+00
          1   -1    0    0  502    0  0.00000000000E+00  0.00000000000E+00  0.30989914749E+02  0.30989914749E+02  0.00000000000E+00 0.  1.
         13   -1    0    0    0    0 -0.00000000000E+00 -0.00000000000E+00 -0.10000000000E+04  0.10000000000E+04  0.00000000000E+00 0.  1.
    9000005    2    1    2  501    0  0.37810184559E+01  0.47146360984E+02 -0.80502036975E+03  0.86031565704E+03  0.29974682414E+03 0.  0.
         13    1    3    3    0    0  0.94266130723E+02  0.36185575901E+02 -0.77966141330E+02  0.12757044524E+03  0.00000000000E+00 0.  1.
          1    1    3    3  501    0 -0.90485112267E+02  0.10960785083E+02 -0.72705422842E+03  0.73274521180E+03  0.00000000000E+00 0.  1.
         21    1    1    2  502  501 -0.37810184559E+01 -0.47146360984E+02 -0.16398971550E+03  0.17067425771E+03  0.00000000000E+00 0. -1.
<mgrwt>
<rscale>  1 0.30000000E+03</rscale>
<asrwt>0</asrwt>
<pdfrwt beam="1">  1        1 0.11269084E+00 0.30000000E+03</pdfrwt>
<pdfrwt beam="2">0</pdfrwt>
<totfact> 0.28640527E+01</totfact>
</mgrwt>
</event>
<event>
 6    1  0.1940992E-004  0.3000000E+03  0.7818608E-02  0.1093470E+00
          1   -1    0    0  502    0  0.00000000000E+00  0.00000000000E+00  0.53003583853E+02  0.53003583853E+02  0.00000000000E+00 0.  1.
         13   -1    0    0    0    0 -0.00000000000E+00 -0.00000000000E+00 -0.10000000000E+04  0.10000000000E+04  0.00000000000E+00 0.  1.
    9000005    2    1    2  501    0 -0.35449705821E+02  0.20429135337E+02 -0.95748285641E+03  0.10107661994E+04  0.32124890411E+03 0.  0.
         13    1    3    3    0    0  0.12378196269E+03 -0.68405157774E+02 -0.40695512075E+03  0.43082909628E+03  0.00000000000E+00 0.  1.
          3    1    3    3  501    0 -0.15923166851E+03  0.88834293111E+02 -0.55052773566E+03  0.57993710316E+03  0.00000000000E+00 0.  1.
         21    1    1    2  502  501  0.35449705821E+02 -0.20429135337E+02  0.10486440259E+02  0.42237384421E+02  0.00000000000E+00 0. -1.
<mgrwt>
<rscale>  1 0.30000000E+03</rscale>
<asrwt>0</asrwt>
<pdfrwt beam="1">  1        1 0.19274071E+00 0.30000000E+03</pdfrwt>
<pdfrwt beam="2">0</pdfrwt>
<totfact> 0.11093262E+01</totfact>
</mgrwt>
</event>
<event>
 6    1  0.1940992E-004  0.3000000E+03  0.7818608E-02  0.1093470E+00
          1   -1    0    0  502    0  0.00000000000E+00  0.00000000000E+00  0.36411533025E+02  0.36411533025E+02  0.00000000000E+00 0.  1.
         13   -1    0    0    0    0 -0.00000000000E+00 -0.00000000000E+00 -0.10000000000E+04  0.10000000000E+04  0.00000000000E+00 0.  1.
    9000005    2    1    2  501    0 -0.43520645733E+01  0.16703607947E+02 -0.92666418571E+03  0.99565182828E+03  0.36375554852E+03 0.  0.
         13    1    3    3    0    0  0.12140413697E+03 -0.54121865021E+02 -0.77489495398E+03  0.78621264964E+03  0.00000000000E+00 0.  1.
          1    1    3    3  501    0 -0.12575620154E+03  0.70825472968E+02 -0.15176923173E+03  0.20943917864E+03  0.00000000000E+00 0.  1.
         21    1    1    2  502  501  0.43520645733E+01 -0.16703607947E+02 -0.36924281261E+02  0.40759704748E+02  0.00000000000E+00 0. -1.
<mgrwt>
<rscale>  1 0.30000000E+03</rscale>
<asrwt>0</asrwt>
<pdfrwt beam="1">  1        1 0.13240585E+00 0.30000000E+03</pdfrwt>
<pdfrwt beam="2">0</pdfrwt>
<totfact> 0.22203028E+01</totfact>
</mgrwt>
</event>
<event>
 6    1  0.1940992E-004  0.3000000E+03  0.7818608E-02  0.1093470E+00
          1   -1    0    0  502    0  0.00000000000E+00  0.00000000000E+00  0.59307211109E+02  0.59307211109E+02  0.00000000000E+00 0.  1.
         13   -1    0    0    0    0 -0.00000000000E+00 -0.00000000000E+00 -0.10000000000E+04  0.10000000000E+04  0.00000000000E+00 0.  1.
    9000005    2    1    2  501    0 -0.43418450499E+02  0.50856819325E+02 -0.93366086252E+03  0.99206863658E+03  0.32864265635E+03 0.  0.
         13    1    3    3    0    0 -0.78147818370E+02  0.12368346746E+03 -0.88675113906E+03  0.89873926379E+03  0.00000000000E+00 0.  1.
          1    1    3    3  501    0  0.34729367872E+02 -0.72826648138E+02 -0.46909723457E+02  0.93329372797E+02  0.00000000000E+00 0.  1.
         21    1    1    2  502  501  0.43418450499E+02 -0.50856819325E+02 -0.70319263693E+01  0.67238574524E+02  0.00000000000E+00 0.  1.
<mgrwt>
<rscale>  1 0.30000000E+03</rscale>
<asrwt>0</asrwt>
<pdfrwt beam="1">  1        1 0.21566304E+00 0.30000000E+03</pdfrwt>
<pdfrwt beam="2">0</pdfrwt>
<totfact> 0.86387551E+00</totfact>
</mgrwt>
</event>
<event>
 6    1  0.1940992E-004  0.3000000E+03  0.7818608E-02  0.1093470E+00
          1   -1    0    0  502    0  0.00000000000E+00  0.00000000000E+00  0.58679118200E+02  0.58679118200E+02  0.00000000000E+00 0.  1.
         13   -1    0    0    0    0 -0.00000000000E+00 -0.00000000000E+00 -0.10000000000E+04  0.10000000000E+04  0.00000000000E+00 0.  1.
    9000005    2    1    2  501    0 -0.10597529170E+02  0.56831185694E+01 -0.97249249691E+03  0.10252684156E+04  0.32448276069E+03 0.  0.
         13    1    3    3    0    0  0.85284982661E+02 -0.12710910354E+03 -0.58252929478E+03  0.60230443444E+03  0.00000000000E+00 0.  1.
          1    1    3    3  501    0 -0.95882511831E+02  0.13279222211E+03 -0.38996320213E+03  0.42296398114E+03  0.00000000000E+00 0.  1.
         21    1    1    2  502  501  0.10597529170E+02 -0.56831185694E+01  0.31171615107E+02  0.33410702620E+02  0.00000000000E+00 0.  1.
<mgrwt>
<rscale>  1 0.30000000E+03</rscale>
<asrwt>0</asrwt>
<pdfrwt beam="1">  1        1 0.21337906E+00 0.30000000E+03</pdfrwt>
<pdfrwt beam="2">0</pdfrwt>
<totfact> 0.88549516E+00</totfact>
</mgrwt>
</event>
<event>
 6    1  0.1940992E-004  0.3000000E+03  0.7818608E-02  0.1093470E+00
          1   -1    0    0  502    0  0.00000000000E+00  0.00000000000E+00  0.50055056482E+02  0.50055056482E+02  0.00000000000E+00 0.  1.
         13   -1    0    0    0    0 -0.00000000000E+00 -0.00000000000E+00 -0.10000000000E+04  0.10000000000E+04  0.00000000000E+00 0.  1.
    9000005    2    1    2  501    0  0.85974330493E+02  0.46248546286E+02 -0.81837347800E+03  0.88622110372E+03  0.32576399687E+03 0.  0.
         13    1    3    3    0    0 -0.22331677970E+02  0.15624932268E+03 -0.23734658980E+03  0.28503676670E+03  0.00000000000E+00 0.  1.
          1    1    3    3  501    0  0.10830600846E+03 -0.11000077640E+03 -0.58102688819E+03  0.60118433702E+03  0.00000000000E+00 0.  1.
         21    1    1    2  502  501 -0.85974330493E+02 -0.46248546286E+02 -0.13157146552E+03  0.16383395276E+03  0.00000000000E+00 0.  1.
<mgrwt>
<rscale>  1 0.30000000E+03</rscale>
<asrwt>0</asrwt>
<pdfrwt beam="1">  1        1 0.18201877E+00 0.30000000E+03</pdfrwt>
<pdfrwt beam="2">0</pdfrwt>
<totfact> 0.12490740E+01</totfact>
</mgrwt>
</event>
<event>
 6    1  0.1940992E-004  0.3000000E+03  0.7818608E-02  0.1093470E+00
          1   -1    0    0  502    0  0.00000000000E+00  0.00000000000E+00  0.60933908891E+02  0.60933908891E+02  0.00000000000E+00 0.  1.
         13   -1    0    0    0    0 -0.00000000000E+00 -0.00000000000E+00 -0.10000000000E+04  0.10000000000E+04  0.00000000000E+00 0.  1.
    9000005    2    1    2  501    0 -0.25722011017E+02 -0.22628686048E+02 -0.95287045803E+03  0.10239982915E+04  0.37341225477E+03 0.  0.
         13    1    3    3    0    0 -0.10181574812E+03 -0.62524838748E+02 -0.92643089536E+03  0.93410385177E+03  0.00000000000E+00 0.  1.
          1    1    3    3  501    0  0.76093737106E+02  0.39896152699E+02 -0.26439562673E+02  0.89894439768E+02  0.00000000000E+00 0.  1.
         21    1    1    2  502  501  0.25722011017E+02  0.22628686048E+02  0.13804366919E+02  0.36935617350E+02  0.00000000000E+00 0.  1.
<mgrwt>
<rscale>  1 0.30000000E+03</rscale>
<asrwt>0</asrwt>
<pdfrwt beam="1">  1        1 0.22157832E+00 0.30000000E+03</pdfrwt>
<pdfrwt beam="2">0</pdfrwt>
<totfact> 0.81040543E+00</totfact>
</mgrwt>
</event>
<event>
 6    1  0.1940992E-004  0.3000000E+03  0.7818608E-02  0.1093470E+00
          1   -1    0    0  502    0  0.00000000000E+00  0.00000000000E+00  0.38360929930E+02  0.38360929930E+02  0.00000000000E+00 0.  1.
         13   -1    0    0    0    0 -0.00000000000E+00 -0.00000000000E+00 -0.10000000000E+04  0.10000000000E+04  0.00000000000E+00 0.  1.
    9000005    2    1    2  501    0 -0.94747115448E+01 -0.39899142242E+02 -0.93108392520E+03  0.98722064650E+03  0.32558503868E+03 0.  0.
         13    1    3    3    0    0 -0.88399635019E+02 -0.15408188339E+03 -0.38888378363E+03  0.42753516748E+03  0.00000000000E+00 0.  1.
          1    1    3    3  501    0  0.78924923474E+02  0.11418274114E+03 -0.54220014156E+03  0.55968547902E+03  0.00000000000E+00 0.  1.
         21    1    1    2  502  501  0.94747115448E+01  0.39899142242E+02 -0.30555144875E+02  0.51140283425E+02  0.00000000000E+00 0. -1.
<mgrwt>
<rscale>  1 0.30000000E+03</rscale>
<asrwt>0</asrwt>
<pdfrwt beam="1">  1        1 0.13949458E+00 0.30000000E+03</pdfrwt>
<pdfrwt beam="2">0</pdfrwt>
<totfact> 0.20356179E+01</totfact>
</mgrwt>
</event>
<event>
 6    1  0.1940992E-004  0.3000000E+03  0.7818608E-02  0.1093470E+00
          1   -1    0    0  502    0  0.00000000000E+00  0.00000000000E+00  0.38232481150E+02  0.38232481150E+02  0.00000000000E+00 0.  1.
         13   -1    0    0    0    0 -0.00000000000E+00 -0.00000000000E+00 -0.10000000000E+04  0.10000000000E+04  0.00000000000E+00 0.  1.
    9000005    2    1    2  501    0  0.25401552987E+01  0.24234697356E+02 -0.95478628142E+03  0.10128846879E+04  0.33723104085E+03 0.  0.
         13    1    3    3    0    0 -0.11616186721E+03  0.12956164541E+03 -0.40857446166E+03  0.44408657948E+03  0.00000000000E+00 0.  1.
          3    1    3    3  501    0  0.11870202250E+03 -0.10532694805E+03 -0.54621181976E+03  0.56879810845E+03  0.00000000000E+00 0.  1.
         21    1    1    2  502  501 -0.25401552987E+01 -0.24234697356E+02 -0.69812374288E+01  0.25347793216E+02  0.00000000000E+00 0.  1.
<mgrwt>
<rscale>  1 0.30000000E+03</rscale>
<asrwt>0</asrwt>
<pdfrwt beam="1">  1        1 0.13902750E+00 0.30000000E+03</pdfrwt>
<pdfrwt beam="2">0</pdfrwt>
<totfact> 0.20471588E+01</totfact>
</mgrwt>
</event>
<event>
 6    1  0.1940992E-004  0.3000000E+03  0.7818608E-02  0.1093470E+00
          1   -1    0    0  502    0  0.00000000000E+00  0.00000000000E+00  0.12519942197E+03  0.12519942197E+03  0.00000000000E+00 0.  1.
         13   -1    0    0    0    0 -0.00000000000E+00 -0.00000000000E+00 -0.10000000000E+04  0.10000000000E+04  0.00000000000E+00 0.  1.
    9000005    2    1    2  501    0  0.39751711192E+02 -0.24209655430E+03 -0.73298054009E+03  0.84182005909E+03  0.33348103334E+03 0.  0.
         13    1    3    3    0    0 -0.85466655862E+02 -0.16753402268E+03 -0.14904253219E+03  0.23997056990E+03  0.00000000000E+00 0.  1.
          1    1    3    3  501    0  0.12521836705E+03 -0.74562531620E+02 -0.58393800790E+03  0.60184948919E+03  0.00000000000E+00 0.  1.
         21    1    1    2  502  501 -0.39751711192E+02  0.24209655430E+03 -0.14182003794E+03  0.28337936288E+03  0.00000000000E+00 0.  1.
<mgrwt>
<rscale>  1 0.30000000E+03</rscale>
<asrwt>0</asrwt>
<pdfrwt beam="1">  1        1 0.45527159E+00 0.30000000E+03</pdfrwt>
<pdfrwt beam="2">0</pdfrwt>
<totfact> 0.47424680E-01</totfact>
</mgrwt>
</event>
<event>
 6    1  0.1940992E-004  0.3000000E+03  0.7818608E-02  0.1093470E+00
          3   -1    0    0  502    0  0.00000000000E+00  0.00000000000E+00  0.31320513701E+02  0.31320513701E+02  0.00000000000E+00 0.  1.
         13   -1    0    0    0    0 -0.00000000000E+00 -0.00000000000E+00 -0.10000000000E+04  0.10000000000E+04  0.00000000000E+00 0.  1.
    9000005    2    1    2  501    0  0.12019035824E+02  0.29459065998E+01 -0.96089812334E+03  0.10167025386E+04  0.33197245801E+03 0.  0.
         13    1    3    3    0    0 -0.87061136632E+02  0.13785158022E+03 -0.52675579865E+03  0.55141125405E+03  0.00000000000E+00 0.  1.
          1    1    3    3  501    0  0.99080172456E+02 -0.13490567362E+03 -0.43414232469E+03  0.46529128450E+03  0.00000000000E+00 0.  1.
         21    1    1    2  502  501 -0.12019035824E+02 -0.29459065998E+01 -0.77813629591E+01  0.14617975145E+02  0.00000000000E+00 0.  1.
<mgrwt>
<rscale>  1 0.30000000E+03</rscale>
<asrwt>0</asrwt>
<pdfrwt beam="1">  1        3 0.11389302E+00 0.30000000E+03</pdfrwt>
<pdfrwt beam="2">0</pdfrwt>
<totfact> 0.27203426E+00</totfact>
</mgrwt>
</event>
<event>
 6    1  0.1940992E-004  0.3000000E+03  0.7818608E-02  0.1093470E+00
          1   -1    0    0  502    0  0.00000000000E+00  0.00000000000E+00  0.33360073156E+02  0.33360073156E+02  0.00000000000E+00 0.  1.
         13   -1    0    0    0    0 -0.00000000000E+00 -0.00000000000E+00 -0.10000000000E+04  0.10000000000E+04  0.00000000000E+00 0.  1.
    9000005    2    1    2  501    0  0.15601358611E+02  0.42797037305E+01 -0.95874646738E+03  0.10153593799E+04  0.33391340709E+03 0.  0.
         13    1    3    3    0    0  0.13070132518E+03  0.18572936112E+02 -0.15637454168E+03  0.20464796028E+03  0.00000000000E+00 0.  1.
          3    1    3    3  501    0 -0.11509996657E+03 -0.14293232382E+02 -0.80237192570E+03  0.81071141965E+03  0.00000000000E+00 0.  1.
         21    1    1    2  502  501 -0.15601358611E+02 -0.42797037305E+01 -0.78934594632E+01  0.18000693231E+02  0.00000000000E+00 0.  1.
<mgrwt>
<rscale>  1 0.30000000E+03</rscale>
<asrwt>0</asrwt>
<pdfrwt beam="1">  1        1 0.12130961E+00 0.30000000E+03</pdfrwt>
<pdfrwt beam="2">0</pdfrwt>
<totfact> 0.25557781E+01</totfact>
</mgrwt>
</event>
<event>
 6    1  0.1940992E-004  0.3000000E+03  0.7818608E-02  0.1093470E+00
          1   -1    0    0  502    0  0.00000000000E+00  0.00000000000E+00  0.29996906086E+02  0.29996906086E+02  0.00000000000E+00 0.  1.
         13   -1    0    0    0    0 -0.00000000000E+00 -0.00000000000E+00 -0.10000000000E+04  0.10000000000E+04  0.00000000000E+00 0.  1.
    9000005    2    1    2  501    0  0.13091595449E+01 -0.10481064782E+02 -0.96483179706E+03  0.10182364244E+04  0.32525905489E+03 0.  0.
         13    1    3    3    0    0  0.10840579777E+03 -0.12672104855E+03 -0.52649717987E+03  0.55227649013E+03  0.00000000000E+00 0.  1.
          3    1    3    3  501    0 -0.10709663822E+03  0.11623998377E+03 -0.43833461719E+03  0.46595993430E+03  0.00000000000E+00 0.  1.
         21    1    1    2  502  501 -0.13091595449E+01  0.10481064782E+02 -0.51712968494E+01  0.11760481656E+02  0.00000000000E+00 0.  1.
<mgrwt>
<rscale>  1 0.30000000E+03</rscale>
<asrwt>0</asrwt>
<pdfrwt beam="1">  1        1 0.10907989E+00 0.30000000E+03</pdfrwt>
<pdfrwt beam="2">0</pdfrwt>
<totfact> 0.30088204E+01</totfact>
</mgrwt>
</event>
<event>
 6    1  0.1940992E-004  0.3000000E+03  0.7818608E-02  0.1093470E+00
          1   -1    0    0  502    0  0.00000000000E+00  0.00000000000E+00  0.82478107535E+02  0.82478107535E+02  0.00000000000E+00 0.  1.
         13   -1    0    0    0    0 -0.00000000000E+00 -0.00000000000E+00 -0.10000000000E+04  0.10000000000E+04  0.00000000000E+00 0.  1.
    9000005    2    1    2  501    0 -0.12095779293E+02 -0.16183232105E+03 -0.80827728124E+03  0.88684990636E+03  0.32688619584E+03 0.  0.
         13    1    3    3    0    0  0.90608089710E+02  0.21565399242E+02 -0.62868765459E+02  0.11237158909E+03  0.00000000000E+00 0.  1.
          1    1    3    3  501    0 -0.10270386900E+03 -0.18339772029E+03 -0.74540851578E+03  0.77447831726E+03  0.00000000000E+00 0.  1.
         21    1    1    2  502  501  0.12095779293E+02  0.16183232105E+03 -0.10924461123E+03  0.19562820118E+03  0.00000000000E+00 0.  1.
<mgrwt>
<rscale>  1 0.30000000E+03</rscale>
<asrwt>0</asrwt>
<pdfrwt beam="1">  1        1 0.29992102E+00 0.30000000E+03</pdfrwt>
<pdfrwt beam="2">0</pdfrwt>
<totfact> 0.34773943E+00</totfact>
</mgrwt>
</event>
<event>
 6    1  0.1940992E-004  0.3000000E+03  0.7818608E-02  0.1093470E+00
          1   -1    0    0  502    0  0.00000000000E+00  0.00000000000E+00  0.35921623525E+02  0.35921623525E+02  0.00000000000E+00 0.  1.
         13   -1    0    0    0    0 -0.00000000000E+00 -0.00000000000E+00 -0.10000000000E+04  0.10000000000E+04  0.00000000000E+00 0.  1.
    9000005    2    1    2  501    0 -0.23473754523E+02 -0.40598477835E+02 -0.89610019452E+03  0.95333659597E+03  0.32195629059E+03 0.  0.
         13    1    3    3    0    0 -0.41179890694E+02  0.90349798597E+02 -0.74919447743E+03  0.75574548263E+03  0.00000000000E+00 0.  1.
          3    1    3    3  501    0  0.17706136171E+02 -0.13094827643E+03 -0.14690571709E+03  0.19759111335E+03  0.00000000000E+00 0.  1.
         21    1    1    2  502  501  0.23473754523E+02  0.40598477835E+02 -0.67978181955E+02  0.82585027552E+02  0.00000000000E+00 0. -1.
<mgrwt>
<rscale>  1 0.30000000E+03</rscale>
<asrwt>0</asrwt>
<pdfrwt beam="1">  1        1 0.13062436E+00 0.30000000E+03</pdfrwt>
<pdfrwt beam="2">0</pdfrwt>
<totfact> 0.22701590E+01</totfact>
</mgrwt>
</event>
<event>
 6    1  0.1940992E-004  0.3000000E+03  0.7818608E-02  0.1093470E+00
          1   -1    0    0  502    0  0.00000000000E+00  0.00000000000E+00  0.28313992329E+02  0.28313992329E+02  0.00000000000E+00 0.  1.
         13   -1    0    0    0    0 -0.00000000000E+00 -0.00000000000E+00 -0.10000000000E+04  0.10000000000E+04  0.00000000000E+00 0.  1.
    9000005    2    1    2  501    0 -0.52022634565E+01 -0.13108129871E+02 -0.94668597248E+03  0.99961053655E+03  0.32063687824E+03 0.  0.
         13    1    3    3    0    0 -0.11331124152E+03  0.55789395135E+01 -0.83636055793E+03  0.84401987232E+03  0.00000000000E+00 0.  1.
          3    1    3    3  501    0  0.10810897806E+03 -0.18687069385E+02 -0.11032541455E+03  0.15559066423E+03  0.00000000000E+00 0.  1.
         21    1    1    2  502  501  0.52022634565E+01  0.13108129871E+02 -0.25000035194E+02  0.28703455776E+02  0.00000000000E+00 0.  1.
<mgrwt>
<rscale>  1 0.30000000E+03</rscale>
<asrwt>0</asrwt>
<pdfrwt beam="1">  1        1 0.10296019E+00 0.30000000E+03</pdfrwt>
<pdfrwt beam="2">0</pdfrwt>
<totfact> 0.32791363E+01</totfact>
</mgrwt>
</event>
<event>
 6    1  0.1940992E-004  0.3000000E+03  0.7818608E-02  0.1093470E+00
          1   -1    0    0  502    0  0.00000000000E+00  0.00000000000E+00  0.33151807073E+02  0.33151807073E+02  0.00000000000E+00 0.  1.
         13   -1    0    0    0    0 -0.00000000000E+00 -0.00000000000E+00 -0.10000000000E+04  0.10000000000E+04  0.00000000000E+00 0.  1.
    9000005    2    1    2  501    0  0.15062894508E+01 -0.15104092410E+02 -0.96443971948E+03  0.10177829015E+04  0.32481942595E+03 0.  0.
         13    1    3    3    0    0  0.15142815261E+03  0.21591616629E+02 -0.64663591241E+03  0.66448076460E+03  0.00000000000E+00 0.  1.
          1    1    3    3  501    0 -0.14992186316E+03 -0.36695709038E+02 -0.31780380707E+03  0.35330213686E+03  0.00000000000E+00 0.  1.
         21    1    1    2  502  501 -0.15062894508E+01  0.15104092410E+02 -0.24084734443E+01  0.15368905614E+02  0.00000000000E+00 0.  1.
<mgrwt>
<rscale>  1 0.30000000E+03</rscale>
<asrwt>0</asrwt>
<pdfrwt beam="1">  1        1 0.12055228E+00 0.30000000E+03</pdfrwt>
<pdfrwt beam="2">0</pdfrwt>
<totfact> 0.25809998E+01</totfact>
</mgrwt>
</event>
<event>
 6    1  0.1940992E-004  0.3000000E+03  0.7818608E-02  0.1093470E+00
          1   -1    0    0  502    0  0.00000000000E+00  0.00000000000E+00  0.30903011071E+02  0.30903011071E+02  0.00000000000E+00 0.  1.
         13   -1    0    0    0    0 -0.00000000000E+00 -0.00000000000E+00 -0.10000000000E+04  0.10000000000E+04  0.00000000000E+00 0.  1.
    9000005    2    1    2  501    0 -0.37483086457E+01 -0.10337748077E+02 -0.96554306217E+03  0.10193466601E+04  0.32660877153E+03 0.  0.
         13    1    3    3    0    0 -0.40368802563E+02  0.82462910414E+02 -0.88866988471E+03  0.89340021033E+03  0.00000000000E+00 0.  1.
          1    1    3    3  501    0  0.36620493917E+02 -0.92800658491E+02 -0.76873177458E+02  0.12594644975E+03  0.00000000000E+00 0.  1.
         21    1    1    2  502  501  0.37483086457E+01  0.10337748077E+02 -0.35539267566E+01  0.11556350999E+02  0.00000000000E+00 0.  1.
<mgrwt>
<rscale>  1 0.30000000E+03</rscale>
<asrwt>0</asrwt>
<pdfrwt beam="1">  1        1 0.11237482E+00 0.30000000E+03</pdfrwt>
<pdfrwt beam="2">0</pdfrwt>
<totfact> 0.28763229E+01</totfact>
</mgrwt>
</event>
<event>
 6    1  0.1940992E-004  0.3000000E+03  0.7818608E-02  0.1093470E+00
          1   -1    0    0  502    0  0.00000000000E+00  0.00000000000E+00  0.34619419769E+02  0.34619419769E+02  0.00000000000E+00 0.  1.
         13   -1    0    0    0    0 -0.00000000000E+00 -0.00000000000E+00 -0.10000000000E+04  0.10000000000E+04  0.00000000000E+00 0.  1.
    9000005    2    1    2  501    0  0.93466304653E+01  0.10218774556E+02 -0.96296496933E+03  0.10205617517E+04  0.33771729908E+03 0.  0.
         13    1    3    3    0    0  0.73015669498E+01 -0.10516236004E+03 -0.85835782295E+03  0.86480667612E+03  0.00000000000E+00 0.  1.
          3    1    3    3  501    0  0.20450635155E+01  0.11538113460E+03 -0.10460714638E+03  0.15575507561E+03  0.00000000000E+00 0.  1.
         21    1    1    2  502  501 -0.93466304653E+01 -0.10218774556E+02 -0.24156109006E+01  0.14057668032E+02  0.00000000000E+00 0.  1.
<mgrwt>
<rscale>  1 0.30000000E+03</rscale>
<asrwt>0</asrwt>
<pdfrwt beam="1">  1        1 0.12588906E+00 0.30000000E+03</pdfrwt>
<pdfrwt beam="2">0</pdfrwt>
<totfact> 0.24099324E+01</totfact>
</mgrwt>
</event>
<event>
 6    1  0.1940992E-004  0.3000000E+03  0.7818608E-02  0.1093470E+00
          1   -1    0    0  502    0  0.00000000000E+00  0.00000000000E+00  0.30412474996E+02  0.30412474996E+02  0.00000000000E+00 0.  1.
         13   -1    0    0    0    0 -0.00000000000E+00 -0.00000000000E+00 -0.10000000000E+04  0.10000000000E+04  0.00000000000E+00 0.  1.
    9000005    2    1    2  501    0 -0.74592923185E+01 -0.67302248170E+01 -0.96983012208E+03  0.10203628073E+04  0.31696822523E+03 0.  0.
         13    1    3    3    0    0  0.81376440333E+02 -0.49761003985E+02 -0.88524843013E+03  0.89037243084E+03  0.00000000000E+00 0.  1.
          1    1    3    3  501    0 -0.88835732652E+02  0.43030779167E+02 -0.84581691950E+02  0.12999037643E+03  0.00000000000E+00 0.  1.
         21    1    1    2  502  501  0.74592923185E+01  0.67302248170E+01  0.24259707491E+00  0.10049667722E+02  0.00000000000E+00 0.  1.
<mgrwt>
<rscale>  1 0.30000000E+03</rscale>
<asrwt>0</asrwt>
<pdfrwt beam="1">  1        1 0.11059105E+00 0.30000000E+03</pdfrwt>
<pdfrwt beam="2">0</pdfrwt>
<totfact> 0.29470025E+01</totfact>
</mgrwt>
</event>
<event>
 6    1  0.1940992E-004  0.3000000E+03  0.7818608E-02  0.1093470E+00
          1   -1    0    0  502    0  0.00000000000E+00  0.00000000000E+00  0.51186085807E+02  0.51186085807E+02  0.00000000000E+00 0.  1.
         13   -1    0    0    0    0 -0.00000000000E+00 -0.00000000000E+00 -0.10000000000E+04  0.10000000000E+04  0.00000000000E+00 0.  1.
    9000005    2    1    2  501    0  0.32165633966E+02 -0.48883213020E+02 -0.93205798365E+03  0.99031772184E+03  0.32950403456E+03 0.  0.
         13    1    3    3    0    0 -0.12066049321E+03 -0.83426434529E+02 -0.24447260672E+03  0.28510661170E+03  0.00000000000E+00 0.  1.
          3    1    3    3  501    0  0.15282612718E+03  0.34543221509E+02 -0.68758537692E+03  0.70521111014E+03  0.00000000000E+00 0.  1.
         21    1    1    2  502  501 -0.32165633966E+02  0.48883213020E+02 -0.16755930547E+02  0.60868363967E+02  0.00000000000E+00 0.  1.
<mgrwt>
<rscale>  1 0.30000000E+03</rscale>
<asrwt>0</asrwt>
<pdfrwt beam="1">  1        1 0.18613161E+00 0.30000000E+03</pdfrwt>
<pdfrwt beam="2">0</pdfrwt>
<totfact> 0.11933909E+01</totfact>
</mgrwt>
</event>
<event>
 6    1  0.1940992E-004  0.3000000E+03  0.7818608E-02  0.1093470E+00
          1   -1    0    0  502    0  0.00000000000E+00  0.00000000000E+00  0.35303718293E+02  0.35303718293E+02  0.00000000000E+00 0.  1.
         13   -1    0    0    0    0 -0.00000000000E+00 -0.00000000000E+00 -0.10000000000E+04  0.10000000000E+04  0.00000000000E+00 0.  1.
    9000005    2    1    2  501    0  0.84034575246E+01  0.20000308381E+02 -0.96155555720E+03  0.10133835316E+04  0.31919658853E+03 0.  0.
         13    1    3    3    0    0 -0.11163654353E+03 -0.65262668781E+02 -0.71185249071E+03  0.72350252406E+03  0.00000000000E+00 0.  1.
          3    1    3    3  501    0  0.12004000105E+03  0.85262977162E+02 -0.24970306649E+03  0.28988100756E+03  0.00000000000E+00 0.  1.
         21    1    1    2  502  501 -0.84034575246E+01 -0.20000308381E+02 -0.31407245085E+01  0.21920186681E+02  0.00000000000E+00 0.  1.
<mgrwt>
<rscale>  1 0.30000000E+03</rscale>
<asrwt>0</asrwt>
<pdfrwt beam="1">  1        1 0.12837743E+00 0.30000000E+03</pdfrwt>
<pdfrwt beam="2">0</pdfrwt>
<totfact> 0.23351417E+01</totfact>
</mgrwt>
</event>
<event>
 6    1  0.1940992E-004  0.3000000E+03  0.7818608E-02  0.1093470E+00
          1   -1    0    0  502    0  0.00000000000E+00  0.00000000000E+00  0.25860205709E+02  0.25860205709E+02  0.00000000000E+00 0.  1.
         13   -1    0    0    0    0 -0.00000000000E+00 -0.00000000000E+00 -0.10000000000E+04  0.10000000000E+04  0.00000000000E+00 0.  1.
    9000005    2    1    2  501    0 -0.32756155069E+01  0.14038215344E+02 -0.96403936014E+03  0.10082585036E+04  0.29496698297E+03 0.  0.
         13    1    3    3    0    0  0.23761278876E+02  0.11987144532E+03 -0.18576758727E+03  0.22235862533E+03  0.00000000000E+00 0.  1.
          3    1    3    3  501    0 -0.27036894383E+02 -0.10583322998E+03 -0.77827177287E+03  0.78589987828E+03  0.00000000000E+00 0.  1.
         21    1    1    2  502  501  0.32756155069E+01 -0.14038215344E+02 -0.10100434152E+02  0.17601702107E+02  0.00000000000E+00 0.  1.
<mgrwt>
<rscale>  1 0.30000000E+03</rscale>
<asrwt>0</asrwt>
<pdfrwt beam="1">  1        1 0.94037310E-01 0.30000000E+03</pdfrwt>
<pdfrwt beam="2">0</pdfrwt>
<totfact> 0.37414925E+01</totfact>
</mgrwt>
</event>
<event>
 6    1  0.1940992E-004  0.3000000E+03  0.7818608E-02  0.1093470E+00
          1   -1    0    0  502    0  0.00000000000E+00  0.00000000000E+00  0.37474553546E+02  0.37474553546E+02  0.00000000000E+00 0.  1.
         13   -1    0    0    0    0 -0.00000000000E+00 -0.00000000000E+00 -0.10000000000E+04  0.10000000000E+04  0.00000000000E+00 0.  1.
    9000005    2    1    2  501    0 -0.14326208591E+02  0.67544606960E+01 -0.96723680932E+03  0.10209500284E+04  0.32640626855E+03 0.  0.
         13    1    3    3    0    0  0.83919926963E-01  0.16565325033E+03 -0.54283162488E+03  0.56754486991E+03  0.00000000000E+00 0.  1.
          3    1    3    3  501    0 -0.14410128518E+02 -0.15889878963E+03 -0.42440518444E+03  0.45340515847E+03  0.00000000000E+00 0.  1.
         21    1    1    2  502  501  0.14326208591E+02 -0.67544606960E+01  0.47113628676E+01  0.16524525166E+02  0.00000000000E+00 0.  1.
<mgrwt>
<rscale>  1 0.30000000E+03</rscale>
<asrwt>0</asrwt>
<pdfrwt beam="1">  1        1 0.13627139E+00 0.30000000E+03</pdfrwt>
<pdfrwt beam="2">0</pdfrwt>
<totfact> 0.21169895E+01</totfact>
</mgrwt>
</event>
<event>
 6    1  0.1940992E-004  0.3000000E+03  0.7818608E-02  0.1093470E+00
          1   -1    0    0  502    0  0.00000000000E+00  0.00000000000E+00  0.56349251949E+02  0.56349251949E+02  0.00000000000E+00 0.  1.
         13   -1    0    0    0    0 -0.00000000000E+00 -0.00000000000E+00 -0.10000000000E+04  0.10000000000E+04  0.00000000000E+00 0.  1.
    9000005    2    1    2  501    0 -0.92698588552E+01  0.21238280726E+02 -0.96759782976E+03  0.10230257231E+04  0.33135943500E+03 0.  0.
         13    1    3    3    0    0  0.56608647901E+02  0.15287569457E+03 -0.32267768217E+03  0.36151957565E+03  0.00000000000E+00 0.  1.
          1    1    3    3  501    0 -0.65878506756E+02 -0.13163741385E+03 -0.64492014758E+03  0.66150614747E+03  0.00000000000E+00 0.  1.
         21    1    1    2  502  501  0.92698588552E+01 -0.21238280726E+02  0.23947081707E+02  0.33323528830E+02  0.00000000000E+00 0. -1.
<mgrwt>
<rscale>  1 0.30000000E+03</rscale>
<asrwt>0</asrwt>
<pdfrwt beam="1">  1        1 0.20490680E+00 0.30000000E+03</pdfrwt>
<pdfrwt beam="2">0</pdfrwt>
<totfact> 0.97086300E+00</totfact>
</mgrwt>
</event>
<event>
 6    1  0.1940992E-004  0.3000000E+03  0.7818608E-02  0.1093470E+00
          1   -1    0    0  502    0  0.00000000000E+00  0.00000000000E+00  0.21166348341E+02  0.21166348341E+02  0.00000000000E+00 0.  1.
         13   -1    0    0    0    0 -0.00000000000E+00 -0.00000000000E+00 -0.10000000000E+04  0.10000000000E+04  0.00000000000E+00 0.  1.
    9000005    2    1    2  501    0  0.23057564553E+01  0.11130107832E+02 -0.93511304757E+03  0.97599238421E+03  0.27927679189E+03 0.  0.
         13    1    3    3    0    0  0.12509962371E+02 -0.15022099071E+02 -0.94576493635E+03  0.94596695368E+03  0.00000000000E+00 0.  1.
          3    1    3    3  501    0 -0.10204205915E+02  0.26152206902E+02  0.10651888780E+02  0.30025430535E+02  0.00000000000E+00 0.  1.
         21    1    1    2  502  501 -0.23057564553E+01 -0.11130107832E+02 -0.43720604089E+02  0.45173964129E+02  0.00000000000E+00 0.  1.
<mgrwt>
<rscale>  1 0.30000000E+03</rscale>
<asrwt>0</asrwt>
<pdfrwt beam="1">  1        1 0.76968702E-01 0.30000000E+03</pdfrwt>
<pdfrwt beam="2">0</pdfrwt>
<totfact> 0.49533736E+01</totfact>
</mgrwt>
</event>
<event>
 6    1  0.1940992E-004  0.3000000E+03  0.7818608E-02  0.1093470E+00
          1   -1    0    0  502    0  0.00000000000E+00  0.00000000000E+00  0.53552980109E+02  0.53552980109E+02  0.00000000000E+00 0.  1.
         13   -1    0    0    0    0 -0.00000000000E+00 -0.00000000000E+00 -0.10000000000E+04  0.10000000000E+04  0.00000000000E+00 0.  1.
    9000005    2    1    2  501    0 -0.50142609106E+02 -0.19750549618E+02 -0.94536980088E+03  0.99965005014E+03  0.32042440118E+03 0.  0.
         13    1    3    3    0    0  0.58895891432E+02 -0.14145844813E+03 -0.57036689819E+03  0.59059090505E+03  0.00000000000E+00 0.  1.
          1    1    3    3  501    0 -0.10903850054E+03  0.12170789851E+03 -0.37500290269E+03  0.40905914509E+03  0.00000000000E+00 0.  1.
         21    1    1    2  502  501  0.50142609106E+02  0.19750549618E+02 -0.10772190103E+01  0.53902929966E+02  0.00000000000E+00 0. -1.
<mgrwt>
<rscale>  1 0.30000000E+03</rscale>
<asrwt>0</asrwt>
<pdfrwt beam="1">  1        1 0.19473852E+00 0.30000000E+03</pdfrwt>
<pdfrwt beam="2">0</pdfrwt>
<totfact> 0.10851867E+01</totfact>
</mgrwt>
</event>
<event>
 6    1  0.1940992E-004  0.3000000E+03  0.7818608E-02  0.1093470E+00
          1   -1    0    0  502    0  0.00000000000E+00  0.00000000000E+00  0.32172301740E+02  0.32172301740E+02  0.00000000000E+00 0.  1.
         13   -1    0    0    0    0 -0.00000000000E+00 -0.00000000000E+00 -0.10000000000E+04  0.10000000000E+04  0.00000000000E+00 0.  1.
    9000005    2    1    2  501    0  0.50158427659E+01 -0.34978056853E+02 -0.89675944670E+03  0.95280404915E+03  0.32001473042E+03 0.  0.
         13    1    3    3    0    0 -0.73926025912E+02 -0.15699770158E+03 -0.55295923493E+03  0.57954917919E+03  0.00000000000E+00 0.  1.
          1    1    3    3  501    0  0.78941868678E+02  0.12201964473E+03 -0.34380021178E+03  0.37325486996E+03  0.00000000000E+00 0.  1.
         21    1    1    2  502  501 -0.50158427659E+01  0.34978056853E+02 -0.71068251556E+02  0.79368252589E+02  0.00000000000E+00 0. -1.
<mgrwt>
<rscale>  1 0.30000000E+03</rscale>
<asrwt>0</asrwt>
<pdfrwt beam="1">  1        1 0.11699043E+00 0.30000000E+03</pdfrwt>
<pdfrwt beam="2">0</pdfrwt>
<totfact> 0.27042211E+01</totfact>
</mgrwt>
</event>
<event>
 6    1  0.1940992E-004  0.3000000E+03  0.7818608E-02  0.1093470E+00
          1   -1    0    0  502    0  0.00000000000E+00  0.00000000000E+00  0.32353827516E+02  0.32353827516E+02  0.00000000000E+00 0.  1.
         13   -1    0    0    0    0 -0.00000000000E+00 -0.00000000000E+00 -0.10000000000E+04  0.10000000000E+04  0.00000000000E+00 0.  1.
    9000005    2    1    2  501    0 -0.21965330946E+02 -0.92566942763E+01 -0.93390164528E+03  0.99103972255E+03  0.33078586196E+03 0.  0.
         13    1    3    3    0    0 -0.14654991700E+03  0.53024132129E+02 -0.26195900312E+03  0.30481298541E+03  0.00000000000E+00 0.  1.
          1    1    3    3  501    0  0.12458458605E+03 -0.62280826406E+02 -0.67194264216E+03  0.68622673714E+03  0.00000000000E+00 0.  1.
         21    1    1    2  502  501  0.21965330946E+02  0.92566942763E+01 -0.33744527207E+02  0.41314104963E+02  0.00000000000E+00 0. -1.
<mgrwt>
<rscale>  1 0.30000000E+03</rscale>
<asrwt>0</asrwt>
<pdfrwt beam="1">  1        1 0.11765053E+00 0.30000000E+03</pdfrwt>
<pdfrwt beam="2">0</pdfrwt>
<totfact> 0.26807902E+01</totfact>
</mgrwt>
</event>
<event>
 6    1  0.1940992E-004  0.3000000E+03  0.7818608E-02  0.1093470E+00
          1   -1    0    0  502    0  0.00000000000E+00  0.00000000000E+00  0.27075976196E+02  0.27075976196E+02  0.00000000000E+00 0.  1.
         13   -1    0    0    0    0 -0.00000000000E+00 -0.00000000000E+00 -0.10000000000E+04  0.10000000000E+04  0.00000000000E+00 0.  1.
    9000005    2    1    2  501    0 -0.55175169578E+02 -0.45053219501E+02 -0.84453168036E+03  0.88024721274E+03  0.23775471492E+03 0.  0.
         13    1    3    3    0    0 -0.46216988216E+02 -0.10172558032E+03 -0.17094428309E+03  0.20422059547E+03  0.00000000000E+00 0.  1.
          3    1    3    3  501    0 -0.89581813613E+01  0.56672360816E+02 -0.67358739727E+03  0.67602661727E+03  0.00000000000E+00 0.  1.
         21    1    1    2  502  501  0.55175169578E+02  0.45053219501E+02 -0.12839234344E+03  0.14682876346E+03  0.00000000000E+00 0.  1.
<mgrwt>
<rscale>  1 0.30000000E+03</rscale>
<asrwt>0</asrwt>
<pdfrwt beam="1">  1        1 0.98458303E-01 0.30000000E+03</pdfrwt>
<pdfrwt beam="2">0</pdfrwt>
<totfact> 0.35011479E+01</totfact>
</mgrwt>
</event>
<event>
 6    1  0.1940992E-004  0.3000000E+03  0.7818608E-02  0.1093470E+00
          1   -1    0    0  502    0  0.00000000000E+00  0.00000000000E+00  0.45998771810E+02  0.45998771810E+02  0.00000000000E+00 0.  1.
         13   -1    0    0    0    0 -0.00000000000E+00 -0.00000000000E+00 -0.10000000000E+04  0.10000000000E+04  0.00000000000E+00 0.  1.
    9000005    2    1    2  501    0  0.20311366653E+01 -0.45417691307E+02 -0.94933066967E+03  0.10002964052E+04  0.31192512822E+03 0.  0.
         13    1    3    3    0    0  0.87831589370E+02 -0.97144783610E+02 -0.84707962657E+03  0.85714373988E+03  0.00000000000E+00 0.  1.
          1    1    3    3  501    0 -0.85800452705E+02  0.51727092303E+02 -0.10225104311E+03  0.14315266529E+03  0.00000000000E+00 0.  1.
         21    1    1    2  502  501 -0.20311366653E+01  0.45417691307E+02 -0.46705585177E+01  0.45702366642E+02  0.00000000000E+00 0. -1.
<mgrwt>
<rscale>  1 0.30000000E+03</rscale>
<asrwt>0</asrwt>
<pdfrwt beam="1">  1        1 0.16726861E+00 0.30000000E+03</pdfrwt>
<pdfrwt beam="2">0</pdfrwt>
<totfact> 0.14734069E+01</totfact>
</mgrwt>
</event>
<event>
 6    1  0.1940992E-004  0.3000000E+03  0.7818608E-02  0.1093470E+00
          1   -1    0    0  502    0  0.00000000000E+00  0.00000000000E+00  0.33203112383E+02  0.33203112383E+02  0.00000000000E+00 0.  1.
         13   -1    0    0    0    0 -0.00000000000E+00 -0.00000000000E+00 -0.10000000000E+04  0.10000000000E+04  0.00000000000E+00 0.  1.
    9000005    2    1    2  501    0  0.16139783079E+02  0.42972281454E+01 -0.94093643157E+03  0.10024180193E+04  0.34525578698E+03 0.  0.
         13    1    3    3    0    0 -0.16081550668E+03  0.36457547419E+02 -0.41386680504E+03  0.44550702831E+03  0.00000000000E+00 0.  1.
          3    1    3    3  501    0  0.17695528976E+03 -0.32160319273E+02 -0.52706962653E+03  0.55691099102E+03  0.00000000000E+00 0.  1.
         21    1    1    2  502  501 -0.16139783079E+02 -0.42972281454E+01 -0.25860456046E+02  0.30785093057E+02  0.00000000000E+00 0. -1.
<mgrwt>
<rscale>  1 0.30000000E+03</rscale>
<asrwt>0</asrwt>
<pdfrwt beam="1">  1        1 0.12073885E+00 0.30000000E+03</pdfrwt>
<pdfrwt beam="2">0</pdfrwt>
<totfact> 0.25747560E+01</totfact>
</mgrwt>
</event>
<event>
 6    1  0.1940992E-004  0.3000000E+03  0.7818608E-02  0.1093470E+00
          1   -1    0    0  502    0  0.00000000000E+00  0.00000000000E+00  0.67879668730E+02  0.67879668730E+02  0.00000000000E+00 0.  1.
         13   -1    0    0    0    0 -0.00000000000E+00 -0.00000000000E+00 -0.10000000000E+04  0.10000000000E+04  0.00000000000E+00 0.  1.
    9000005    2    1    2  501    0  0.37293445265E+02 -0.19302314016E+02 -0.96208525934E+03  0.10162920995E+04  0.32477408280E+03 0.  0.
         13    1    3    3    0    0 -0.11290357045E+03 -0.17059792517E+00 -0.13746793210E+03  0.17788950975E+03  0.00000000000E+00 0.  1.
          1    1    3    3  501    0  0.15019701572E+03 -0.19131716091E+02 -0.82461732724E+03  0.83840258974E+03  0.00000000000E+00 0.  1.
         21    1    1    2  502  501 -0.37293445265E+02  0.19302314016E+02  0.29964928069E+02  0.51587569242E+02  0.00000000000E+00 0.  1.
<mgrwt>
<rscale>  1 0.30000000E+03</rscale>
<asrwt>0</asrwt>
<pdfrwt beam="1">  1        1 0.24683568E+00 0.30000000E+03</pdfrwt>
<pdfrwt beam="2">0</pdfrwt>
<totfact> 0.61721108E+00</totfact>
</mgrwt>
</event>
<event>
 6    1  0.1940992E-004  0.3000000E+03  0.7818608E-02  0.1093470E+00
          1   -1    0    0  502    0  0.00000000000E+00  0.00000000000E+00  0.50909851605E+02  0.50909851605E+02  0.00000000000E+00 0.  1.
         13   -1    0    0    0    0 -0.00000000000E+00 -0.00000000000E+00 -0.10000000000E+04  0.10000000000E+04  0.00000000000E+00 0.  1.
    9000005    2    1    2  501    0  0.13504404910E+02 -0.75886405864E+01 -0.97021816537E+03  0.10247115784E+04  0.32934871196E+03 0.  0.
         13    1    3    3    0    0  0.10312753471E+03  0.12971546313E+03 -0.49486514624E+03  0.52187441282E+03  0.00000000000E+00 0.  1.
          3    1    3    3  501    0 -0.89623129800E+02 -0.13730410371E+03 -0.47535301913E+03  0.50283716558E+03  0.00000000000E+00 0.  1.
         21    1    1    2  502  501 -0.13504404910E+02  0.75886405864E+01  0.21128016974E+02  0.26198273210E+02  0.00000000000E+00 0. -1.
<mgrwt>
<rscale>  1 0.30000000E+03</rscale>
<asrwt>0</asrwt>
<pdfrwt beam="1">  1        1 0.18512712E+00 0.30000000E+03</pdfrwt>
<pdfrwt beam="2">0</pdfrwt>
<totfact> 0.12067375E+01</totfact>
</mgrwt>
</event>
<event>
 6    1  0.1940992E-004  0.3000000E+03  0.7818608E-02  0.1093470E+00
          1   -1    0    0  502    0  0.00000000000E+00  0.00000000000E+00  0.77428579773E+02  0.77428579773E+02  0.00000000000E+00 0.  1.
         13   -1    0    0    0    0 -0.00000000000E+00 -0.00000000000E+00 -0.10000000000E+04  0.10000000000E+04  0.00000000000E+00 0.  1.
    9000005    2    1    2  501    0  0.13272022659E+03  0.11913406254E+03 -0.69957847415E+03  0.79188797425E+03  0.32537507413E+03 0.  0.
         13    1    3    3    0    0  0.12494499168E+03  0.40550261974E+02 -0.54867387429E+02  0.14235871907E+03  0.00000000000E+00 0.  1.
          1    1    3    3  501    0  0.77752349072E+01  0.78583800561E+02 -0.64471108672E+03  0.64952925518E+03  0.00000000000E+00 0.  1.
         21    1    1    2  502  501 -0.13272022659E+03 -0.11913406254E+03 -0.22299294607E+03  0.28554060552E+03  0.00000000000E+00 0.  1.
<mgrwt>
<rscale>  1 0.30000000E+03</rscale>
<asrwt>0</asrwt>
<pdfrwt beam="1">  1        1 0.28155907E+00 0.30000000E+03</pdfrwt>
<pdfrwt beam="2">0</pdfrwt>
<totfact> 0.42460841E+00</totfact>
</mgrwt>
</event>
<event>
 6    1  0.1940992E-004  0.3000000E+03  0.7818608E-02  0.1093470E+00
          1   -1    0    0  502    0  0.00000000000E+00  0.00000000000E+00  0.33786228391E+02  0.33786228391E+02  0.00000000000E+00 0.  1.
         13   -1    0    0    0    0 -0.00000000000E+00 -0.00000000000E+00 -0.10000000000E+04  0.10000000000E+04  0.00000000000E+00 0.  1.
    9000005    2    1    2  501    0 -0.20512112503E+02 -0.19798883654E+02 -0.93036343764E+03  0.98798241851E+03  0.33124068387E+03 0.  0.
         13    1    3    3    0    0 -0.13637745845E+03  0.37916672638E+02 -0.76497280130E+03  0.77795878552E+03  0.00000000000E+00 0.  1.
          1    1    3    3  501    0  0.11586534594E+03 -0.57715556293E+02 -0.16539063633E+03  0.21002363299E+03  0.00000000000E+00 0.  1.
         21    1    1    2  502  501  0.20512112503E+02  0.19798883654E+02 -0.35850333974E+02  0.45803809878E+02  0.00000000000E+00 0.  1.
<mgrwt>
<rscale>  1 0.30000000E+03</rscale>
<asrwt>0</asrwt>
<pdfrwt beam="1">  1        1 0.12285927E+00 0.30000000E+03</pdfrwt>
<pdfrwt beam="2">0</pdfrwt>
<totfact> 0.25051750E+01</totfact>
</mgrwt>
</event>
<event>
 6    1  0.1940992E-004  0.3000000E+03  0.7818608E-02  0.1093470E+00
          3   -1    0    0  502    0  0.00000000000E+00  0.00000000000E+00  0.49415877024E+02  0.49415877024E+02  0.00000000000E+00 0.  1.
         13   -1    0    0    0    0 -0.00000000000E+00 -0.00000000000E+00 -0.10000000000E+04  0.10000000000E+04  0.00000000000E+00 0.  1.
    9000005    2    1    2  501    0 -0.14670934589E+02 -0.37976313020E+01 -0.96832605198E+03  0.10260827596E+04  0.33905873858E+03 0.  0.
         13    1    3    3    0    0  0.72915374936E+02 -0.22448778252E+02 -0.92220147740E+03  0.92535191385E+03  0.00000000000E+00 0.  1.
          1    1    3    3  501    0 -0.87586309525E+02  0.18651146950E+02 -0.46124574582E+02  0.10073084572E+03  0.00000000000E+00 0.  1.
         21    1    1    2  502  501  0.14670934589E+02  0.37976313020E+01  0.17741929007E+02  0.23333117454E+02  0.00000000000E+00 0.  1.
<mgrwt>
<rscale>  1 0.30000000E+03</rscale>
<asrwt>0</asrwt>
<pdfrwt beam="1">  1        3 0.17969448E+00 0.30000000E+03</pdfrwt>
<pdfrwt beam="2">0</pdfrwt>
<totfact> 0.33197340E-01</totfact>
</mgrwt>
</event>
<event>
 6    1  0.1940992E-004  0.3000000E+03  0.7818608E-02  0.1093470E+00
          3   -1    0    0  502    0  0.00000000000E+00  0.00000000000E+00  0.28836419064E+02  0.28836419064E+02  0.00000000000E+00 0.  1.
         13   -1    0    0    0    0 -0.00000000000E+00 -0.00000000000E+00 -0.10000000000E+04  0.10000000000E+04  0.00000000000E+00 0.  1.
    9000005    2    1    2  501    0  0.88843411088E+01  0.45175464399E+01 -0.95318541702E+03  0.10082802978E+04  0.32858390102E+03 0.  0.
         13    1    3    3    0    0  0.52538848870E+02 -0.15446754965E+03 -0.50717139381E+03  0.53276953482E+03  0.00000000000E+00 0.  1.
          3    1    3    3  501    0 -0.43654507761E+02  0.15898509609E+03 -0.44601402321E+03  0.47551076300E+03  0.00000000000E+00 0.  1.
         21    1    1    2  502  501 -0.88843411088E+01 -0.45175464399E+01 -0.17978163921E+02  0.20556121248E+02  0.00000000000E+00 0. -1.
<mgrwt>
<rscale>  1 0.30000000E+03</rscale>
<asrwt>0</asrwt>
<pdfrwt beam="1">  1        3 0.10485993E+00 0.30000000E+03</pdfrwt>
<pdfrwt beam="2">0</pdfrwt>
<totfact> 0.34484319E+00</totfact>
</mgrwt>
</event>
<event>
 6    1  0.1940992E-004  0.3000000E+03  0.7818608E-02  0.1093470E+00
          1   -1    0    0  502    0  0.00000000000E+00  0.00000000000E+00  0.35143936134E+02  0.35143936134E+02  0.00000000000E+00 0.  1.
         13   -1    0    0    0    0 -0.00000000000E+00 -0.00000000000E+00 -0.10000000000E+04  0.10000000000E+04  0.00000000000E+00 0.  1.
    9000005    2    1    2  501    0  0.13585396151E+02 -0.19972142858E+02 -0.95666471924E+03  0.10096381014E+04  0.32183576754E+03 0.  0.
         13    1    3    3    0    0 -0.10866324049E+03  0.62837382746E+02 -0.18238922819E+03  0.22140927502E+03  0.00000000000E+00 0.  1.
          1    1    3    3  501    0  0.12224863664E+03 -0.82809525604E+02 -0.77427549105E+03  0.78822882637E+03  0.00000000000E+00 0.  1.
         21    1    1    2  502  501 -0.13585396151E+02  0.19972142858E+02 -0.81913446243E+01  0.25505834738E+02  0.00000000000E+00 0.  1.
<mgrwt>
<rscale>  1 0.30000000E+03</rscale>
<asrwt>0</asrwt>
<pdfrwt beam="1">  1        1 0.12779640E+00 0.30000000E+03</pdfrwt>
<pdfrwt beam="2">0</pdfrwt>
<totfact> 0.23523357E+01</totfact>
</mgrwt>
</event>
<event>
 6    1  0.1940992E-004  0.3000000E+03  0.7818608E-02  0.1093470E+00
          1   -1    0    0  502    0  0.00000000000E+00  0.00000000000E+00  0.45187642811E+02  0.45187642811E+02  0.00000000000E+00 0.  1.
         13   -1    0    0    0    0 -0.00000000000E+00 -0.00000000000E+00 -0.10000000000E+04  0.10000000000E+04  0.00000000000E+00 0.  1.
    9000005    2    1    2  501    0  0.35758822835E+01 -0.12685777841E+02 -0.97169353258E+03  0.10237705941E+04  0.32209345252E+03 0.  0.
         13    1    3    3    0    0 -0.11798954296E+03 -0.11227789017E+03 -0.43288802917E+03  0.46251475940E+03  0.00000000000E+00 0.  1.
          3    1    3    3  501    0  0.12156542525E+03  0.99592112326E+02 -0.53880550341E+03  0.56125583468E+03  0.00000000000E+00 0.  1.
         21    1    1    2  502  501 -0.35758822835E+01  0.12685777841E+02  0.16881175393E+02  0.21417048728E+02  0.00000000000E+00 0.  1.
<mgrwt>
<rscale>  1 0.30000000E+03</rscale>
<asrwt>0</asrwt>
<pdfrwt beam="1">  1        1 0.16431905E+00 0.30000000E+03</pdfrwt>
<pdfrwt beam="2">0</pdfrwt>
<totfact> 0.15234555E+01</totfact>
</mgrwt>
</event>
<event>
 6    1  0.1940992E-004  0.3000000E+03  0.7818608E-02  0.1093470E+00
          1   -1    0    0  502    0  0.00000000000E+00  0.00000000000E+00  0.67221057121E+02  0.67221057121E+02  0.00000000000E+00 0.  1.
         13   -1    0    0    0    0 -0.00000000000E+00 -0.00000000000E+00 -0.10000000000E+04  0.10000000000E+04  0.00000000000E+00 0.  1.
    9000005    2    1    2  501    0  0.30137074821E+02  0.80162780063E+01 -0.96779815998E+03  0.10203291649E+04  0.32166103628E+03 0.  0.
         13    1    3    3    0    0  0.17189692254E+03  0.40015325252E+02 -0.57673153914E+03  0.60313269392E+03  0.00000000000E+00 0.  1.
          1    1    3    3  501    0 -0.14175984772E+03 -0.31999047246E+02 -0.39106662083E+03  0.41719647096E+03  0.00000000000E+00 0.  1.
         21    1    1    2  502  501 -0.30137074821E+02 -0.80162780063E+01  0.35019217097E+02  0.46891892241E+02  0.00000000000E+00 0.  1.
<mgrwt>
<rscale>  1 0.30000000E+03</rscale>
<asrwt>0</asrwt>
<pdfrwt beam="1">  1        1 0.24444072E+00 0.30000000E+03</pdfrwt>
<pdfrwt beam="2">0</pdfrwt>
<totfact> 0.63331478E+00</totfact>
</mgrwt>
</event>
<event>
 6    1  0.1940992E-004  0.3000000E+03  0.7818608E-02  0.1093470E+00
          1   -1    0    0  502    0  0.00000000000E+00  0.00000000000E+00  0.76782814695E+02  0.76782814695E+02  0.00000000000E+00 0.  1.
         13   -1    0    0    0    0 -0.00000000000E+00 -0.00000000000E+00 -0.10000000000E+04  0.10000000000E+04  0.00000000000E+00 0.  1.
    9000005    2    1    2  501    0  0.94236205812E+02  0.14868382631E+03 -0.68171494551E+03  0.77793389882E+03  0.33084519236E+03 0.  0.
         13    1    3    3    0    0  0.20492342033E+03  0.22174160625E+02 -0.39625601269E+03  0.44665885102E+03  0.00000000000E+00 0.  1.
          1    1    3    3  501    0 -0.11068721452E+03  0.12650966569E+03 -0.28545893282E+03  0.33127504780E+03  0.00000000000E+00 0.  1.
         21    1    1    2  502  501 -0.94236205812E+02 -0.14868382631E+03 -0.24150223979E+03  0.29884891587E+03  0.00000000000E+00 0.  1.
<mgrwt>
<rscale>  1 0.30000000E+03</rscale>
<asrwt>0</asrwt>
<pdfrwt beam="1">  1        1 0.27921082E+00 0.30000000E+03</pdfrwt>
<pdfrwt beam="2">0</pdfrwt>
<totfact> 0.43548256E+00</totfact>
</mgrwt>
</event>
<event>
 6    1  0.1940992E-004  0.3000000E+03  0.7818608E-02  0.1093470E+00
          1   -1    0    0  502    0  0.00000000000E+00  0.00000000000E+00  0.35947055979E+02  0.35947055979E+02  0.00000000000E+00 0.  1.
         13   -1    0    0    0    0 -0.00000000000E+00 -0.00000000000E+00 -0.10000000000E+04  0.10000000000E+04  0.00000000000E+00 0.  1.
    9000005    2    1    2  501    0  0.39904006840E+02  0.16006227384E+01 -0.91628676897E+03  0.97368551701E+03  0.32693600491E+03 0.  0.
         13    1    3    3    0    0 -0.95297993357E+02  0.73867404631E+00 -0.76448501186E+03  0.77040222386E+03  0.00000000000E+00 0.  1.
          1    1    3    3  501    0  0.13520200020E+03  0.86194869207E+00 -0.15180175711E+03  0.20328329315E+03  0.00000000000E+00 0.  1.
         21    1    1    2  502  501 -0.39904006840E+02 -0.16006227384E+01 -0.47766175055E+02  0.62261538966E+02  0.00000000000E+00 0. -1.
<mgrwt>
<rscale>  1 0.30000000E+03</rscale>
<asrwt>0</asrwt>
<pdfrwt beam="1">  1        1 0.13071684E+00 0.30000000E+03</pdfrwt>
<pdfrwt beam="2">0</pdfrwt>
<totfact> 0.22675350E+01</totfact>
</mgrwt>
</event>
<event>
 6    1  0.1940992E-004  0.3000000E+03  0.7818608E-02  0.1093470E+00
          1   -1    0    0  502    0  0.00000000000E+00  0.00000000000E+00  0.32405258953E+02  0.32405258953E+02  0.00000000000E+00 0.  1.
         13   -1    0    0    0    0 -0.00000000000E+00 -0.00000000000E+00 -0.10000000000E+04  0.10000000000E+04  0.00000000000E+00 0.  1.
    9000005    2    1    2  501    0 -0.14753355188E+02  0.20324668115E+02 -0.87493522895E+03  0.93640245272E+03  0.33272683236E+03 0.  0.
         13    1    3    3    0    0  0.32394982407E+02 -0.12617545940E+03 -0.65586546088E+03  0.66867718985E+03  0.00000000000E+00 0.  1.
          1    1    3    3  501    0 -0.47148337595E+02  0.14650012751E+03 -0.21906976807E+03  0.26772526288E+03  0.00000000000E+00 0.  1.
         21    1    1    2  502  501  0.14753355188E+02 -0.20324668115E+02 -0.92659512092E+02  0.96002806232E+02  0.00000000000E+00 0. -1.
<mgrwt>
<rscale>  1 0.30000000E+03</rscale>
<asrwt>0</asrwt>
<pdfrwt beam="1">  1        1 0.11783755E+00 0.30000000E+03</pdfrwt>
<pdfrwt beam="2">0</pdfrwt>
<totfact> 0.26742022E+01</totfact>
</mgrwt>
</event>
<event>
 6    1  0.1940992E-004  0.3000000E+03  0.7818608E-02  0.1093470E+00
          1   -1    0    0  502    0  0.00000000000E+00  0.00000000000E+00  0.30810200654E+02  0.30810200654E+02  0.00000000000E+00 0.  1.
         13   -1    0    0    0    0 -0.00000000000E+00 -0.00000000000E+00 -0.10000000000E+04  0.10000000000E+04  0.00000000000E+00 0.  1.
    9000005    2    1    2  501    0 -0.23822866174E+02 -0.42593516247E+01 -0.93298256435E+03  0.98725982873E+03  0.32193141040E+03 0.  0.
         13    1    3    3    0    0  0.14200213812E+03 -0.22913842890E+02 -0.30076374344E+03  0.33338938315E+03  0.00000000000E+00 0.  1.
          1    1    3    3  501    0 -0.16582500429E+03  0.18654491265E+02 -0.63221882091E+03  0.65387044558E+03  0.00000000000E+00 0.  1.
         21    1    1    2  502  501  0.23822866174E+02  0.42593516247E+01 -0.36207234992E+02  0.43550371925E+02  0.00000000000E+00 0.  1.
<mgrwt>
<rscale>  1 0.30000000E+03</rscale>
<asrwt>0</asrwt>
<pdfrwt beam="1">  1        1 0.11203733E+00 0.30000000E+03</pdfrwt>
<pdfrwt beam="2">0</pdfrwt>
<totfact> 0.28895105E+01</totfact>
</mgrwt>
</event>
<event>
 6    1  0.1940992E-004  0.3000000E+03  0.7818608E-02  0.1093470E+00
          1   -1    0    0  502    0  0.00000000000E+00  0.00000000000E+00  0.91695138091E+02  0.91695138091E+02  0.00000000000E+00 0.  1.
         13   -1    0    0    0    0 -0.00000000000E+00 -0.00000000000E+00 -0.10000000000E+04  0.10000000000E+04  0.00000000000E+00 0.  1.
    9000005    2    1    2  501    0  0.20928470160E+03  0.55312035359E+02 -0.58433121642E+03  0.70205629178E+03  0.32338917540E+03 0.  0.
         13    1    3    3    0    0  0.20932311080E+03  0.12057187961E+03 -0.20403848818E+03  0.31620475570E+03  0.00000000000E+00 0.  1.
          3    1    3    3  501    0 -0.38409198986E-01 -0.65259844250E+02 -0.38029272823E+03  0.38585153608E+03  0.00000000000E+00 0.  1.
         21    1    1    2  502  501 -0.20928470160E+03 -0.55312035359E+02 -0.32397364549E+03  0.38963884631E+03  0.00000000000E+00 0.  1.
<mgrwt>
<rscale>  1 0.30000000E+03</rscale>
<asrwt>0</asrwt>
<pdfrwt beam="1">  1        1 0.33343757E+00 0.30000000E+03</pdfrwt>
<pdfrwt beam="2">0</pdfrwt>
<totfact> 0.23899554E+00</totfact>
</mgrwt>
</event>
<event>
 6    1  0.1940992E-004  0.3000000E+03  0.7818608E-02  0.1093470E+00
          1   -1    0    0  502    0  0.00000000000E+00  0.00000000000E+00  0.28594166706E+02  0.28594166706E+02  0.00000000000E+00 0.  1.
         13   -1    0    0    0    0 -0.00000000000E+00 -0.00000000000E+00 -0.10000000000E+04  0.10000000000E+04  0.00000000000E+00 0.  1.
    9000005    2    1    2  501    0  0.14775053947E+02 -0.88955160911E+01 -0.93678407868E+03  0.98991473653E+03  0.31948293087E+03 0.  0.
         13    1    3    3    0    0 -0.48586724895E+02 -0.62436734263E+02 -0.38816062707E+02  0.88123222510E+02  0.00000000000E+00 0.  1.
          3    1    3    3  501    0  0.63361778842E+02  0.53541218171E+02 -0.89796801597E+03  0.90179151402E+03  0.00000000000E+00 0.  1.
         21    1    1    2  502  501 -0.14775053947E+02  0.88955160911E+01 -0.34621754618E+02  0.38679430173E+02  0.00000000000E+00 0. -1.
<mgrwt>
<rscale>  1 0.30000000E+03</rscale>
<asrwt>0</asrwt>
<pdfrwt beam="1">  1        1 0.10397901E+00 0.30000000E+03</pdfrwt>
<pdfrwt beam="2">0</pdfrwt>
<totfact> 0.32317596E+01</totfact>
</mgrwt>
</event>
<event>
 6    1  0.1940992E-004  0.3000000E+03  0.7818608E-02  0.1093470E+00
          1   -1    0    0  502    0  0.00000000000E+00  0.00000000000E+00  0.29802182796E+02  0.29802182796E+02  0.00000000000E+00 0.  1.
         13   -1    0    0    0    0 -0.00000000000E+00 -0.00000000000E+00 -0.10000000000E+04  0.10000000000E+04  0.00000000000E+00 0.  1.
    9000005    2    1    2  501    0  0.19784990567E+02  0.85685514142E+01 -0.93543112729E+03  0.98889266492E+03  0.32001944146E+03 0.  0.
         13    1    3    3    0    0  0.13443582348E+02 -0.12618867946E+03 -0.17263932063E+03  0.21426303404E+03  0.00000000000E+00 0.  1.
          1    1    3    3  501    0  0.63414082188E+01  0.13475723087E+03 -0.76279180665E+03  0.77462963087E+03  0.00000000000E+00 0.  1.
         21    1    1    2  502  501 -0.19784990567E+02 -0.85685514142E+01 -0.34766689919E+02  0.40909517877E+02  0.00000000000E+00 0.  1.
<mgrwt>
<rscale>  1 0.30000000E+03</rscale>
<asrwt>0</asrwt>
<pdfrwt beam="1">  1        1 0.10837180E+00 0.30000000E+03</pdfrwt>
<pdfrwt beam="2">0</pdfrwt>
<totfact> 0.30384228E+01</totfact>
</mgrwt>
</event>
<event>
 6    1  0.1940992E-004  0.3000000E+03  0.7818608E-02  0.1093470E+00
          3   -1    0    0  502    0  0.00000000000E+00  0.00000000000E+00  0.32416600889E+02  0.32416600889E+02  0.00000000000E+00 0.  1.
         13   -1    0    0    0    0 -0.00000000000E+00 -0.00000000000E+00 -0.10000000000E+04  0.10000000000E+04  0.00000000000E+00 0.  1.
    9000005    2    1    2  501    0 -0.18301627712E+02 -0.34241540723E+02 -0.85178525304E+03  0.91028289006E+03  0.31869952925E+03 0.  0.
         13    1    3    3    0    0 -0.15785090130E+03 -0.75359267464E+02 -0.49386419498E+03  0.52392534708E+03  0.00000000000E+00 0.  1.
          1    1    3    3  501    0  0.13954927358E+03  0.41117726740E+02 -0.35792105806E+03  0.38635754298E+03  0.00000000000E+00 0.  1.
         21    1    1    2  502  501  0.18301627712E+02  0.34241540723E+02 -0.11579814607E+03  0.12213371083E+03  0.00000000000E+00 0. -1.
<mgrwt>
<rscale>  1 0.30000000E+03</rscale>
<asrwt>0</asrwt>
<pdfrwt beam="1">  1        3 0.11787880E+00 0.30000000E+03</pdfrwt>
<pdfrwt beam="2">0</pdfrwt>
<totfact> 0.24475339E+00</totfact>
</mgrwt>
</event>
<event>
 6    1  0.1940992E-004  0.3000000E+03  0.7818608E-02  0.1093470E+00
          1   -1    0    0  502    0  0.00000000000E+00  0.00000000000E+00  0.30013831321E+02  0.30013831321E+02  0.00000000000E+00 0.  1.
         13   -1    0    0    0    0 -0.00000000000E+00 -0.00000000000E+00 -0.10000000000E+04  0.10000000000E+04  0.00000000000E+00 0.  1.
    9000005    2    1    2  501    0 -0.93545675431E+01  0.27612788354E+01 -0.96372740649E+03  0.10184248409E+04  0.32912537118E+03 0.  0.
         13    1    3    3    0    0  0.60167472949E+02  0.18583917906E+02 -0.12092506712E+02  0.64122659991E+02  0.00000000000E+00 0.  1.
          3    1    3    3  501    0 -0.69522040492E+02 -0.15822639071E+02 -0.95163489978E+03  0.95430218091E+03  0.00000000000E+00 0.  1.
         21    1    1    2  502  501  0.93545675431E+01 -0.27612788354E+01 -0.62587621890E+01  0.11588990416E+02  0.00000000000E+00 0. -1.
<mgrwt>
<rscale>  1 0.30000000E+03</rscale>
<asrwt>0</asrwt>
<pdfrwt beam="1">  1        1 0.10914143E+00 0.30000000E+03</pdfrwt>
<pdfrwt beam="2">0</pdfrwt>
<totfact> 0.30062668E+01</totfact>
</mgrwt>
</event>
<event>
 6    1  0.1940992E-004  0.3000000E+03  0.7818608E-02  0.1093470E+00
          1   -1    0    0  502    0  0.00000000000E+00  0.00000000000E+00  0.40243007811E+02  0.40243007811E+02  0.00000000000E+00 0.  1.
         13   -1    0    0    0    0 -0.00000000000E+00 -0.00000000000E+00 -0.10000000000E+04  0.10000000000E+04  0.00000000000E+00 0.  1.
    9000005    2    1    2  501    0 -0.91577610125E+01  0.34060458898E+02 -0.94143323700E+03  0.10004970715E+04  0.33682914208E+03 0.  0.
         13    1    3    3    0    0  0.67750410474E+02 -0.62869119069E+02 -0.82639436075E+03  0.83154692215E+03  0.00000000000E+00 0.  1.
          1    1    3    3  501    0 -0.76908171487E+02  0.96929577967E+02 -0.11503887625E+03  0.16895014938E+03  0.00000000000E+00 0.  1.
         21    1    1    2  502  501  0.91577610125E+01 -0.34060458898E+02 -0.18323755192E+02  0.39745936289E+02  0.00000000000E+00 0. -1.
<mgrwt>
<rscale>  1 0.30000000E+03</rscale>
<asrwt>0</asrwt>
<pdfrwt beam="1">  1        1 0.14633852E+00 0.30000000E+03</pdfrwt>
<pdfrwt beam="2">0</pdfrwt>
<totfact> 0.18756110E+01</totfact>
</mgrwt>
</event>
<event>
 6    1  0.1940992E-004  0.3000000E+03  0.7818608E-02  0.1093470E+00
          1   -1    0    0  502    0  0.00000000000E+00  0.00000000000E+00  0.33503809743E+02  0.33503809743E+02  0.00000000000E+00 0.  1.
         13   -1    0    0    0    0 -0.00000000000E+00 -0.00000000000E+00 -0.10000000000E+04  0.10000000000E+04  0.00000000000E+00 0.  1.
    9000005    2    1    2  501    0 -0.14151279733E+02  0.60634037310E+01 -0.96682647497E+03  0.10181046971E+04  0.31866395767E+03 0.  0.
         13    1    3    3    0    0 -0.23705397928E+02  0.15966013729E+03 -0.41705993458E+03  0.44720498026E+03  0.00000000000E+00 0.  1.
          3    1    3    3  501    0  0.95541181956E+01 -0.15359673356E+03 -0.54976654039E+03  0.57089971682E+03  0.00000000000E+00 0.  1.
         21    1    1    2  502  501  0.14151279733E+02 -0.60634037310E+01  0.33028471676E+00  0.15399112665E+02  0.00000000000E+00 0.  1.
<mgrwt>
<rscale>  1 0.30000000E+03</rscale>
<asrwt>0</asrwt>
<pdfrwt beam="1">  1        1 0.12183229E+00 0.30000000E+03</pdfrwt>
<pdfrwt beam="2">0</pdfrwt>
<totfact> 0.25385613E+01</totfact>
</mgrwt>
</event>
<event>
 6    1  0.1940992E-004  0.3000000E+03  0.7818608E-02  0.1093470E+00
          1   -1    0    0  502    0  0.00000000000E+00  0.00000000000E+00  0.31928782593E+02  0.31928782593E+02  0.00000000000E+00 0.  1.
         13   -1    0    0    0    0 -0.00000000000E+00 -0.00000000000E+00 -0.10000000000E+04  0.10000000000E+04  0.00000000000E+00 0.  1.
    9000005    2    1    2  501    0  0.10230239497E+02 -0.88418760430E+01 -0.96464998316E+03  0.10179809722E+04  0.32488895501E+03 0.  0.
         13    1    3    3    0    0 -0.35464666193E+01 -0.94079193516E+02 -0.65487903769E+02  0.11468276949E+03  0.00000000000E+00 0.  1.
          3    1    3    3  501    0  0.13776706117E+02  0.85237317473E+02 -0.89916207939E+03  0.90329820267E+03  0.00000000000E+00 0.  1.
         21    1    1    2  502  501 -0.10230239497E+02  0.88418760430E+01 -0.34212342441E+01  0.13947810433E+02  0.00000000000E+00 0.  1.
<mgrwt>
<rscale>  1 0.30000000E+03</rscale>
<asrwt>0</asrwt>
<pdfrwt beam="1">  1        1 0.11610491E+00 0.30000000E+03</pdfrwt>
<pdfrwt beam="2">0</pdfrwt>
<totfact> 0.27360996E+01</totfact>
</mgrwt>
</event>
<event>
 6    1  0.1940992E-004  0.3000000E+03  0.7818608E-02  0.1093470E+00
          1   -1    0    0  502    0  0.00000000000E+00  0.00000000000E+00  0.28647290921E+02  0.28647290921E+02  0.00000000000E+00 0.  1.
         13   -1    0    0    0    0 -0.00000000000E+00 -0.00000000000E+00 -0.10000000000E+04  0.10000000000E+04  0.00000000000E+00 0.  1.
    9000005    2    1    2  501    0  0.13233081213E+02  0.36023737606E+01 -0.93022441810E+03  0.98529261581E+03  0.32449341936E+03 0.  0.
         13    1    3    3    0    0  0.27332357228E+02  0.11532091802E+03 -0.12507480432E+03  0.17230693126E+03  0.00000000000E+00 0.  1.
          3    1    3    3  501    0 -0.14099276015E+02 -0.11171854426E+03 -0.80514961377E+03  0.81298568455E+03  0.00000000000E+00 0.  1.
         21    1    1    2  502  501 -0.13233081213E+02 -0.36023737606E+01 -0.41128290981E+02  0.43354675112E+02  0.00000000000E+00 0.  1.
<mgrwt>
<rscale>  1 0.30000000E+03</rscale>
<asrwt>0</asrwt>
<pdfrwt beam="1">  1        1 0.10417219E+00 0.30000000E+03</pdfrwt>
<pdfrwt beam="2">0</pdfrwt>
<totfact> 0.32228888E+01</totfact>
</mgrwt>
</event>
<event>
 6    1  0.1940992E-004  0.3000000E+03  0.7818608E-02  0.1093470E+00
          1   -1    0    0  502    0  0.00000000000E+00  0.00000000000E+00  0.37694279273E+02  0.37694279273E+02  0.00000000000E+00 0.  1.
         13   -1    0    0    0    0 -0.00000000000E+00 -0.00000000000E+00 -0.10000000000E+04  0.10000000000E+04  0.00000000000E+00 0.  1.
    9000005    2    1    2  501    0  0.33619969935E+02  0.22676751153E+02 -0.78828992731E+03  0.85901570255E+03  0.33891360301E+03 0.  0.
         13    1    3    3    0    0  0.10540228014E+03 -0.10946716223E+03 -0.19642818689E+03  0.24834800758E+03  0.00000000000E+00 0.  1.
          1    1    3    3  501    0 -0.71782310210E+02  0.13214391338E+03 -0.59186174042E+03  0.61066769496E+03  0.00000000000E+00 0.  1.
         21    1    1    2  502  501 -0.33619969935E+02 -0.22676751153E+02 -0.17401579342E+03  0.17867857673E+03  0.00000000000E+00 0.  1.
<mgrwt>
<rscale>  1 0.30000000E+03</rscale>
<asrwt>0</asrwt>
<pdfrwt beam="1">  1        1 0.13707040E+00 0.30000000E+03</pdfrwt>
<pdfrwt beam="2">0</pdfrwt>
<totfact> 0.20964350E+01</totfact>
</mgrwt>
</event>
<event>
 6    1  0.1940992E-004  0.3000000E+03  0.7818608E-02  0.1093470E+00
          1   -1    0    0  502    0  0.00000000000E+00  0.00000000000E+00  0.22125110644E+02  0.22125110644E+02  0.00000000000E+00 0.  1.
         13   -1    0    0    0    0 -0.00000000000E+00 -0.00000000000E+00 -0.10000000000E+04  0.10000000000E+04  0.00000000000E+00 0.  1.
    9000005    2    1    2  501    0  0.18567975327E+02  0.10724538725E+02 -0.93776527349E+03  0.97664361195E+03  0.27197288681E+03 0.  0.
         13    1    3    3    0    0 -0.41438881916E+02  0.11004492412E+03 -0.21900444596E+03  0.24857597151E+03  0.00000000000E+00 0.  1.
          1    1    3    3  501    0  0.60006857242E+02 -0.99320385396E+02 -0.71876082753E+03  0.72806764044E+03  0.00000000000E+00 0.  1.
         21    1    1    2  502  501 -0.18567975327E+02 -0.10724538725E+02 -0.40109615864E+02  0.45481498693E+02  0.00000000000E+00 0. -1.
<mgrwt>
<rscale>  1 0.30000000E+03</rscale>
<asrwt>0</asrwt>
<pdfrwt beam="1">  1        1 0.80455117E-01 0.30000000E+03</pdfrwt>
<pdfrwt beam="2">0</pdfrwt>
<totfact> 0.46598698E+01</totfact>
</mgrwt>
</event>
<event>
 6    1  0.1940992E-004  0.3000000E+03  0.7818608E-02  0.1093470E+00
          1   -1    0    0  502    0  0.00000000000E+00  0.00000000000E+00  0.57346890390E+02  0.57346890390E+02  0.00000000000E+00 0.  1.
         13   -1    0    0    0    0 -0.00000000000E+00 -0.00000000000E+00 -0.10000000000E+04  0.10000000000E+04  0.00000000000E+00 0.  1.
    9000005    2    1    2  501    0 -0.99031140098E+00  0.10835463936E+02 -0.97305262125E+03  0.10250588384E+04  0.32217360291E+03 0.  0.
         13    1    3    3    0    0  0.15446842212E+02 -0.14813758956E+03 -0.32360284070E+03  0.35623327874E+03  0.00000000000E+00 0.  1.
          1    1    3    3  501    0 -0.16437153613E+02  0.15897305350E+03 -0.64944978055E+03  0.66882555963E+03  0.00000000000E+00 0.  1.
         21    1    1    2  502  501  0.99031140098E+00 -0.10835463936E+02  0.30399511638E+02  0.32288052019E+02  0.00000000000E+00 0. -1.
<mgrwt>
<rscale>  1 0.30000000E+03</rscale>
<asrwt>0</asrwt>
<pdfrwt beam="1">  1        1 0.20853459E+00 0.30000000E+03</pdfrwt>
<pdfrwt beam="2">0</pdfrwt>
<totfact> 0.93326394E+00</totfact>
</mgrwt>
</event>
<event>
 6    1  0.1940992E-004  0.3000000E+03  0.7818608E-02  0.1093470E+00
          1   -1    0    0  502    0  0.00000000000E+00  0.00000000000E+00  0.67022155491E+02  0.67022155491E+02  0.00000000000E+00 0.  1.
         13   -1    0    0    0    0 -0.00000000000E+00 -0.00000000000E+00 -0.10000000000E+04  0.10000000000E+04  0.00000000000E+00 0.  1.
    9000005    2    1    2  501    0 -0.13805377980E+02  0.15711545799E+02 -0.97087122471E+03  0.10237399490E+04  0.32406034492E+03 0.  0.
         13    1    3    3    0    0 -0.13324633922E+03 -0.92758885694E+02 -0.52780202539E+03  0.55220809103E+03  0.00000000000E+00 0.  1.
          1    1    3    3  501    0  0.11944096124E+03  0.10847043149E+03 -0.44306919932E+03  0.47153185801E+03  0.00000000000E+00 0.  1.
         21    1    1    2  502  501  0.13805377980E+02 -0.15711545799E+02  0.37893380201E+02  0.43282206455E+02  0.00000000000E+00 0.  1.
<mgrwt>
<rscale>  1 0.30000000E+03</rscale>
<asrwt>0</asrwt>
<pdfrwt beam="1">  1        1 0.24371744E+00 0.30000000E+03</pdfrwt>
<pdfrwt beam="2">0</pdfrwt>
<totfact> 0.63826821E+00</totfact>
</mgrwt>
</event>
<event>
 6    1  0.1940992E-004  0.3000000E+03  0.7818608E-02  0.1093470E+00
          3   -1    0    0  502    0  0.00000000000E+00  0.00000000000E+00  0.34277373255E+02  0.34277373255E+02  0.00000000000E+00 0.  1.
         13   -1    0    0    0    0 -0.00000000000E+00 -0.00000000000E+00 -0.10000000000E+04  0.10000000000E+04  0.00000000000E+00 0.  1.
    9000005    2    1    2  501    0 -0.61966274562E+01 -0.16289918861E+02 -0.94264957780E+03  0.10053615431E+04  0.34908429653E+03 0.  0.
         13    1    3    3    0    0  0.32742235491E+02 -0.88086456307E+01 -0.96105080205E+03  0.96164873543E+03  0.00000000000E+00 0.  1.
          1    1    3    3  501    0 -0.38938862947E+02 -0.74812732303E+01  0.18401224254E+02  0.43712807629E+02  0.00000000000E+00 0.  1.
         21    1    1    2  502  501  0.61966274562E+01  0.16289918861E+02 -0.23073048946E+02  0.28915830197E+02  0.00000000000E+00 0. -1.
<mgrwt>
<rscale>  1 0.30000000E+03</rscale>
<asrwt>0</asrwt>
<pdfrwt beam="1">  1        3 0.12464526E+00 0.30000000E+03</pdfrwt>
<pdfrwt beam="2">0</pdfrwt>
<totfact> 0.20427421E+00</totfact>
</mgrwt>
</event>
<event>
 6    1  0.1940992E-004  0.3000000E+03  0.7818608E-02  0.1093470E+00
          1   -1    0    0  502    0  0.00000000000E+00  0.00000000000E+00  0.49829150288E+02  0.49829150288E+02  0.00000000000E+00 0.  1.
         13   -1    0    0    0    0 -0.00000000000E+00 -0.00000000000E+00 -0.10000000000E+04  0.10000000000E+04  0.00000000000E+00 0.  1.
    9000005    2    1    2  501    0 -0.74008706271E+01 -0.64648805156E+02 -0.91597950970E+03  0.97632208514E+03  0.33159027558E+03 0.  0.
         13    1    3    3    0    0  0.33262990019E+02  0.41489861524E+02 -0.83517153771E+03  0.83686279193E+03  0.00000000000E+00 0.  1.
          3    1    3    3  501    0 -0.40663860646E+02 -0.10613866668E+03 -0.80807971987E+02  0.13945929321E+03  0.00000000000E+00 0.  1.
         21    1    1    2  502  501  0.74008706271E+01  0.64648805156E+02 -0.34191340014E+02  0.73507065144E+02  0.00000000000E+00 0.  1.
<mgrwt>
<rscale>  1 0.30000000E+03</rscale>
<asrwt>0</asrwt>
<pdfrwt beam="1">  1        1 0.18119729E+00 0.30000000E+03</pdfrwt>
<pdfrwt beam="2">0</pdfrwt>
<totfact> 0.12605345E+01</totfact>
</mgrwt>
</event>
<event>
 6    1  0.1940992E-004  0.3000000E+03  0.7818608E-02  0.1093470E+00
          1   -1    0    0  502    0  0.00000000000E+00  0.00000000000E+00  0.32974518579E+02  0.32974518579E+02  0.00000000000E+00 0.  1.
         13   -1    0    0    0    0 -0.00000000000E+00 -0.00000000000E+00 -0.10000000000E+04  0.10000000000E+04  0.00000000000E+00 0.  1.
    9000005    2    1    2  501    0  0.16321126866E+02 -0.14571072710E+00 -0.96420804897E+03  0.10164113565E+04  0.32113623812E+03 0.  0.
         13    1    3    3    0    0 -0.11384923424E+03 -0.10462321960E+03 -0.46888826873E+03  0.49372449278E+03  0.00000000000E+00 0.  1.
          3    1    3    3  501    0  0.13017036111E+03  0.10447750887E+03 -0.49531978023E+03  0.52268686368E+03  0.00000000000E+00 0.  1.
         21    1    1    2  502  501 -0.16321126866E+02  0.14571072710E+00 -0.28174324554E+01  0.16563162121E+02  0.00000000000E+00 0.  1.
<mgrwt>
<rscale>  1 0.30000000E+03</rscale>
<asrwt>0</asrwt>
<pdfrwt beam="1">  1        1 0.11990759E+00 0.30000000E+03</pdfrwt>
<pdfrwt beam="2">0</pdfrwt>
<totfact> 0.26027321E+01</totfact>
</mgrwt>
</event>
<event>
 6    1  0.1940992E-004  0.3000000E+03  0.7818608E-02  0.1093470E+00
          1   -1    0    0  502    0  0.00000000000E+00  0.00000000000E+00  0.44795978425E+02  0.44795978425E+02  0.00000000000E+00 0.  1.
         13   -1    0    0    0    0 -0.00000000000E+00 -0.00000000000E+00 -0.10000000000E+04  0.10000000000E+04  0.00000000000E+00 0.  1.
    9000005    2    1    2  501    0  0.54995042354E+02 -0.17655266550E+02 -0.93101561304E+03  0.98217615546E+03  0.30747969935E+03 0.  0.
         13    1    3    3    0    0  0.48602103163E+01  0.13141853909E+03 -0.61837073176E+03  0.63219998098E+03  0.00000000000E+00 0.  1.
          3    1    3    3  501    0  0.50134832037E+02 -0.14907380564E+03 -0.31264488129E+03  0.34997617448E+03  0.00000000000E+00 0.  1.
         21    1    1    2  502  501 -0.54995042354E+02  0.17655266550E+02 -0.24188408534E+02  0.62619822962E+02  0.00000000000E+00 0. -1.
<mgrwt>
<rscale>  1 0.30000000E+03</rscale>
<asrwt>0</asrwt>
<pdfrwt beam="1">  1        1 0.16289481E+00 0.30000000E+03</pdfrwt>
<pdfrwt beam="2">0</pdfrwt>
<totfact> 0.15483167E+01</totfact>
</mgrwt>
</event>
<event>
 6    1  0.1940992E-004  0.3000000E+03  0.7818608E-02  0.1093470E+00
          1   -1    0    0  502    0  0.00000000000E+00  0.00000000000E+00  0.44035053847E+02  0.44035053847E+02  0.00000000000E+00 0.  1.
         13   -1    0    0    0    0 -0.00000000000E+00 -0.00000000000E+00 -0.10000000000E+04  0.10000000000E+04  0.00000000000E+00 0.  1.
    9000005    2    1    2  501    0  0.59270199197E+02  0.46592600575E+02 -0.85777036226E+03  0.92023681780E+03  0.32462590706E+03 0.  0.
         13    1    3    3    0    0  0.11220862688E+02  0.15013334927E+03 -0.74398312528E+03  0.75906312058E+03  0.00000000000E+00 0.  1.
          3    1    3    3  501    0  0.48049336509E+02 -0.10354074869E+03 -0.11378723698E+03  0.16117369723E+03  0.00000000000E+00 0.  1.
         21    1    1    2  502  501 -0.59270199197E+02 -0.46592600575E+02 -0.98194583897E+02  0.12379823604E+03  0.00000000000E+00 0. -1.
<mgrwt>
<rscale>  1 0.30000000E+03</rscale>
<asrwt>0</asrwt>
<pdfrwt beam="1">  1        1 0.16012781E+00 0.30000000E+03</pdfrwt>
<pdfrwt beam="2">0</pdfrwt>
<totfact> 0.15979670E+01</totfact>
</mgrwt>
</event>
<event>
 6    1  0.1940992E-004  0.3000000E+03  0.7818608E-02  0.1093470E+00
          1   -1    0    0  502    0  0.00000000000E+00  0.00000000000E+00  0.31821845061E+02  0.31821845061E+02  0.00000000000E+00 0.  1.
         13   -1    0    0    0    0 -0.00000000000E+00 -0.00000000000E+00 -0.10000000000E+04  0.10000000000E+04  0.00000000000E+00 0.  1.
    9000005    2    1    2  501    0 -0.47498811612E+00 -0.14641593085E+02 -0.94883136570E+03  0.10075545808E+04  0.33863058169E+03 0.  0.
         13    1    3    3    0    0 -0.80102354291E+02 -0.66532991881E+02 -0.88936648222E+03  0.89544165967E+03  0.00000000000E+00 0.  1.
          3    1    3    3  501    0  0.79627366175E+02  0.51891398796E+02 -0.59464883474E+02  0.11211292111E+03  0.00000000000E+00 0.  1.
         21    1    1    2  502  501  0.47498811612E+00  0.14641593085E+02 -0.19346789242E+02  0.24267264282E+02  0.00000000000E+00 0. -1.
<mgrwt>
<rscale>  1 0.30000000E+03</rscale>
<asrwt>0</asrwt>
<pdfrwt beam="1">  1        1 0.11571604E+00 0.30000000E+03</pdfrwt>
<pdfrwt beam="2">0</pdfrwt>
<totfact> 0.27502634E+01</totfact>
</mgrwt>
</event>
<event>
 6    1  0.1940992E-004  0.3000000E+03  0.7818608E-02  0.1093470E+00
          1   -1    0    0  502    0  0.00000000000E+00  0.00000000000E+00  0.84789769275E+02  0.84789769275E+02  0.00000000000E+00 0.  1.
         13   -1    0    0    0    0 -0.00000000000E+00 -0.00000000000E+00 -0.10000000000E+04  0.10000000000E+04  0.00000000000E+00 0.  1.
    9000005    2    1    2  501    0 -0.26366912252E+02 -0.49216048099E+02 -0.95958242782E+03  0.10134712911E+04  0.32126031293E+03 0.  0.
         13    1    3    3    0    0 -0.84824146892E+02 -0.26204387632E+02 -0.50334734417E+02  0.10205582451E+03  0.00000000000E+00 0.  1.
          3    1    3    3  501    0  0.58457234640E+02 -0.23011660467E+02 -0.90924769341E+03  0.91141546660E+03  0.00000000000E+00 0.  1.
         21    1    1    2  502  501  0.26366912252E+02  0.49216048099E+02  0.44372197098E+02  0.71318478163E+02  0.00000000000E+00 0.  1.
<mgrwt>
<rscale>  1 0.30000000E+03</rscale>
<asrwt>0</asrwt>
<pdfrwt beam="1">  1        1 0.30832708E+00 0.30000000E+03</pdfrwt>
<pdfrwt beam="2">0</pdfrwt>
<totfact> 0.31709223E+00</totfact>
</mgrwt>
</event>
<event>
 6    1  0.1940992E-004  0.3000000E+03  0.7818608E-02  0.1093470E+00
          1   -1    0    0  502    0  0.00000000000E+00  0.00000000000E+00  0.31455409302E+02  0.31455409302E+02  0.00000000000E+00 0.  1.
         13   -1    0    0    0    0 -0.00000000000E+00 -0.00000000000E+00 -0.10000000000E+04  0.10000000000E+04  0.00000000000E+00 0.  1.
    9000005    2    1    2  501    0  0.81719030139E+01  0.10842790156E+02 -0.96291360047E+03  0.10167566288E+04  0.32620100267E+03 0.  0.
         13    1    3    3    0    0 -0.84659383736E+02  0.69319218669E+02 -0.85801777332E+03  0.86496639511E+03  0.00000000000E+00 0.  1.
          1    1    3    3  501    0  0.92831286749E+02 -0.58476428513E+02 -0.10489582715E+03  0.15179023369E+03  0.00000000000E+00 0.  1.
         21    1    1    2  502  501 -0.81719030139E+01 -0.10842790156E+02 -0.56309902245E+01  0.14698780498E+02  0.00000000000E+00 0.  1.
<mgrwt>
<rscale>  1 0.30000000E+03</rscale>
<asrwt>0</asrwt>
<pdfrwt beam="1">  1        1 0.11438355E+00 0.30000000E+03</pdfrwt>
<pdfrwt beam="2">0</pdfrwt>
<totfact> 0.27995821E+01</totfact>
</mgrwt>
</event>
<event>
 6    1  0.1940992E-004  0.3000000E+03  0.7818608E-02  0.1093470E+00
          1   -1    0    0  502    0  0.00000000000E+00  0.00000000000E+00  0.29406243880E+02  0.29406243880E+02  0.00000000000E+00 0.  1.
         13   -1    0    0    0    0 -0.00000000000E+00 -0.00000000000E+00 -0.10000000000E+04  0.10000000000E+04  0.00000000000E+00 0.  1.
    9000005    2    1    2  501    0  0.10327312566E+01 -0.18102713258E+02 -0.93934127033E+03  0.99327464235E+03  0.32234099682E+03 0.  0.
         13    1    3    3    0    0  0.12239845030E+03 -0.19155126534E+02 -0.14949310518E+03  0.19415583433E+03  0.00000000000E+00 0.  1.
          3    1    3    3  501    0 -0.12136571905E+03  0.10524132761E+01 -0.78984816515E+03  0.79911880802E+03  0.00000000000E+00 0.  1.
         21    1    1    2  502  501 -0.10327312566E+01  0.18102713258E+02 -0.31252485794E+02  0.36131601534E+02  0.00000000000E+00 0. -1.
<mgrwt>
<rscale>  1 0.30000000E+03</rscale>
<asrwt>0</asrwt>
<pdfrwt beam="1">  1        1 0.10693202E+00 0.30000000E+03</pdfrwt>
<pdfrwt beam="2">0</pdfrwt>
<totfact> 0.30999126E+01</totfact>
</mgrwt>
</event>
<event>
 6    1  0.1940992E-004  0.3000000E+03  0.7818608E-02  0.1093470E+00
          1   -1    0    0  502    0  0.00000000000E+00  0.00000000000E+00  0.31664229334E+02  0.31664229334E+02  0.00000000000E+00 0.  1.
         13   -1    0    0    0    0 -0.00000000000E+00 -0.00000000000E+00 -0.10000000000E+04  0.10000000000E+04  0.00000000000E+00 0.  1.
    9000005    2    1    2  501    0 -0.12542824564E+02 -0.10158873926E+02 -0.92596740392E+03  0.98632546371E+03  0.33935492051E+03 0.  0.
         13    1    3    3    0    0 -0.52345959502E+02  0.14599366206E+03 -0.63550257474E+03  0.65415424124E+03  0.00000000000E+00 0.  1.
          1    1    3    3  501    0  0.39803134939E+02 -0.15615253598E+03 -0.29046482919E+03  0.33217122247E+03  0.00000000000E+00 0.  1.
         21    1    1    2  502  501  0.12542824564E+02  0.10158873926E+02 -0.42368366742E+02  0.45338765619E+02  0.00000000000E+00 0. -1.
<mgrwt>
<rscale>  1 0.30000000E+03</rscale>
<asrwt>0</asrwt>
<pdfrwt beam="1">  1        1 0.11514289E+00 0.30000000E+03</pdfrwt>
<pdfrwt beam="2">0</pdfrwt>
<totfact> 0.27713264E+01</totfact>
</mgrwt>
</event>
<event>
 6    1  0.1940992E-004  0.3000000E+03  0.7818608E-02  0.1093470E+00
          1   -1    0    0  502    0  0.00000000000E+00  0.00000000000E+00  0.32552548237E+02  0.32552548237E+02  0.00000000000E+00 0.  1.
         13   -1    0    0    0    0 -0.00000000000E+00 -0.00000000000E+00 -0.10000000000E+04  0.10000000000E+04  0.00000000000E+00 0.  1.
    9000005    2    1    2  501    0 -0.17703410489E+02  0.25031515232E+02 -0.92544802615E+03  0.98055313238E+03  0.32263045240E+03 0.  0.
         13    1    3    3    0    0  0.16842003010E+02 -0.37335902045E+02  0.10186234365E+02  0.42206421519E+02  0.00000000000E+00 0.  1.
          1    1    3    3  501    0 -0.34545413499E+02  0.62367417277E+02 -0.93563426052E+03  0.93834671086E+03  0.00000000000E+00 0.  1.
         21    1    1    2  502  501  0.17703410489E+02 -0.25031515232E+02 -0.41999425613E+02  0.51999415858E+02  0.00000000000E+00 0.  1.
<mgrwt>
<rscale>  1 0.30000000E+03</rscale>
<asrwt>0</asrwt>
<pdfrwt beam="1">  1        1 0.11837315E+00 0.30000000E+03</pdfrwt>
<pdfrwt beam="2">0</pdfrwt>
<totfact> 0.26554574E+01</totfact>
</mgrwt>
</event>
<event>
 6    1  0.1940992E-004  0.3000000E+03  0.7818608E-02  0.1093470E+00
          1   -1    0    0  502    0  0.00000000000E+00  0.00000000000E+00  0.35343547462E+02  0.35343547462E+02  0.00000000000E+00 0.  1.
         13   -1    0    0    0    0 -0.00000000000E+00 -0.00000000000E+00 -0.10000000000E+04  0.10000000000E+04  0.00000000000E+00 0.  1.
    9000005    2    1    2  501    0 -0.15864066104E+00 -0.28545776704E+02 -0.94131031557E+03  0.99846633707E+03  0.33174542882E+03 0.  0.
         13    1    3    3    0    0  0.45331851648E+02  0.32125978141E+02 -0.14792770642E+01  0.55580963521E+02  0.00000000000E+00 0.  1.
          1    1    3    3  501    0 -0.45490492309E+02 -0.60671754845E+02 -0.93983103850E+03  0.94288537355E+03  0.00000000000E+00 0.  1.
         21    1    1    2  502  501  0.15864066104E+00  0.28545776704E+02 -0.23346136973E+02  0.36877210389E+02  0.00000000000E+00 0.  1.
<mgrwt>
<rscale>  1 0.30000000E+03</rscale>
<asrwt>0</asrwt>
<pdfrwt beam="1">  1        1 0.12852226E+00 0.30000000E+03</pdfrwt>
<pdfrwt beam="2">0</pdfrwt>
<totfact> 0.23308810E+01</totfact>
</mgrwt>
</event>
<event>
 6    1  0.1940992E-004  0.3000000E+03  0.7818608E-02  0.1093470E+00
          1   -1    0    0  502    0  0.00000000000E+00  0.00000000000E+00  0.32799886893E+02  0.32799886893E+02  0.00000000000E+00 0.  1.
         13   -1    0    0    0    0 -0.00000000000E+00 -0.00000000000E+00 -0.10000000000E+04  0.10000000000E+04  0.00000000000E+00 0.  1.
    9000005    2    1    2  501    0 -0.25642257686E+02  0.13639920038E+02 -0.85318490621E+03  0.91514343700E+03  0.32972633092E+03 0.  0.
         13    1    3    3    0    0  0.97945831198E+01  0.14602367600E+03 -0.20053454362E+03  0.24825984572E+03  0.00000000000E+00 0.  1.
          3    1    3    3  501    0 -0.35436840805E+02 -0.13238375597E+03 -0.65265036259E+03  0.66688359128E+03  0.00000000000E+00 0.  1.
         21    1    1    2  502  501  0.25642257686E+02 -0.13639920038E+02 -0.11401520690E+03  0.11765644989E+03  0.00000000000E+00 0. -1.
<mgrwt>
<rscale>  1 0.30000000E+03</rscale>
<asrwt>0</asrwt>
<pdfrwt beam="1">  1        1 0.11927257E+00 0.30000000E+03</pdfrwt>
<pdfrwt beam="2">0</pdfrwt>
<totfact> 0.26243794E+01</totfact>
</mgrwt>
</event>
<event>
 6    1  0.1940992E-004  0.3000000E+03  0.7818608E-02  0.1093470E+00
          1   -1    0    0  502    0  0.00000000000E+00  0.00000000000E+00  0.29315211169E+02  0.29315211169E+02  0.00000000000E+00 0.  1.
         13   -1    0    0    0    0 -0.00000000000E+00 -0.00000000000E+00 -0.10000000000E+04  0.10000000000E+04  0.00000000000E+00 0.  1.
    9000005    2    1    2  501    0 -0.17394229258E+02  0.16835198449E+01 -0.90700434587E+03  0.96328043044E+03  0.32395510613E+03 0.  0.
         13    1    3    3    0    0  0.10520844711E+03  0.78722750304E+02 -0.18510225645E+03  0.22699985485E+03  0.00000000000E+00 0.  1.
          3    1    3    3  501    0 -0.12260267636E+03 -0.77039230460E+02 -0.72190208942E+03  0.73628057559E+03  0.00000000000E+00 0.  1.
         21    1    1    2  502  501  0.17394229258E+02 -0.16835198449E+01 -0.63680442958E+02  0.66034780728E+02  0.00000000000E+00 0.  1.
<mgrwt>
<rscale>  1 0.30000000E+03</rscale>
<asrwt>0</asrwt>
<pdfrwt beam="1">  1        1 0.10660099E+00 0.30000000E+03</pdfrwt>
<pdfrwt beam="2">0</pdfrwt>
<totfact> 0.31143022E+01</totfact>
</mgrwt>
</event>
<event>
 6    1  0.1940992E-004  0.3000000E+03  0.7818608E-02  0.1093470E+00
          1   -1    0    0  502    0  0.00000000000E+00  0.00000000000E+00  0.40794315331E+02  0.40794315331E+02  0.00000000000E+00 0.  1.
         13   -1    0    0    0    0 -0.00000000000E+00 -0.00000000000E+00 -0.10000000000E+04  0.10000000000E+04  0.00000000000E+00 0.  1.
    9000005    2    1    2  501    0  0.20552220654E+02 -0.43258596789E+01 -0.96304689796E+03  0.10194433960E+04  0.33371305516E+03 0.  0.
         13    1    3    3    0    0  0.15578012417E+03  0.70406901512E+02 -0.62136678956E+03  0.64445423890E+03  0.00000000000E+00 0.  1.
          3    1    3    3  501    0 -0.13522790351E+03 -0.74732761191E+02 -0.34168010840E+03  0.37498915712E+03  0.00000000000E+00 0.  1.
         21    1    1    2  502  501 -0.20552220654E+02  0.43258596789E+01  0.38412132925E+01  0.21350919309E+02  0.00000000000E+00 0.  1.
<mgrwt>
<rscale>  1 0.30000000E+03</rscale>
<asrwt>0</asrwt>
<pdfrwt beam="1">  1        1 0.14834328E+00 0.30000000E+03</pdfrwt>
<pdfrwt beam="2">0</pdfrwt>
<totfact> 0.18317663E+01</totfact>
</mgrwt>
</event>
<event>
 6    1  0.1940992E-004  0.3000000E+03  0.7818608E-02  0.1093470E+00
          1   -1    0    0  502    0  0.00000000000E+00  0.00000000000E+00  0.58335431530E+02  0.58335431530E+02  0.00000000000E+00 0.  1.
         13   -1    0    0    0    0 -0.00000000000E+00 -0.00000000000E+00 -0.10000000000E+04  0.10000000000E+04  0.00000000000E+00 0.  1.
    9000005    2    1    2  501    0 -0.53899091452E+01  0.16814359219E+02 -0.96349649363E+03  0.10302568498E+04  0.36440624238E+03 0.  0.
         13    1    3    3    0    0  0.45188202756E+02 -0.14864704296E+03 -0.23658298426E+03  0.28303608514E+03  0.00000000000E+00 0.  1.
          1    1    3    3  501    0 -0.50578111901E+02  0.16546140217E+03 -0.72691350937E+03  0.74722076465E+03  0.00000000000E+00 0.  1.
         21    1    1    2  502  501  0.53899091452E+01 -0.16814359219E+02  0.21831925163E+02  0.28078581746E+02  0.00000000000E+00 0.  1.
<mgrwt>
<rscale>  1 0.30000000E+03</rscale>
<asrwt>0</asrwt>
<pdfrwt beam="1">  1        1 0.21212929E+00 0.30000000E+03</pdfrwt>
<pdfrwt beam="2">0</pdfrwt>
<totfact> 0.89756531E+00</totfact>
</mgrwt>
</event>
<event>
 6    1  0.1940992E-004  0.3000000E+03  0.7818608E-02  0.1093470E+00
          1   -1    0    0  502    0  0.00000000000E+00  0.00000000000E+00  0.59463569281E+02  0.59463569281E+02  0.00000000000E+00 0.  1.
         13   -1    0    0    0    0 -0.00000000000E+00 -0.00000000000E+00 -0.10000000000E+04  0.10000000000E+04  0.00000000000E+00 0.  1.
    9000005    2    1    2  501    0 -0.60718459162E+02  0.34594119773E+02 -0.93312406021E+03  0.98918962217E+03  0.32076800412E+03 0.  0.
         13    1    3    3    0    0  0.65991456565E+02  0.11359973309E+03 -0.18865122890E+03  0.22988922955E+03  0.00000000000E+00 0.  1.
          3    1    3    3  501    0 -0.12670991573E+03 -0.79005613318E+02 -0.74447283131E+03  0.75930039262E+03  0.00000000000E+00 0.  1.
         21    1    1    2  502  501  0.60718459162E+02 -0.34594119773E+02 -0.74123705127E+01  0.70273947110E+02  0.00000000000E+00 0. -1.
<mgrwt>
<rscale>  1 0.30000000E+03</rscale>
<asrwt>0</asrwt>
<pdfrwt beam="1">  1        1 0.21623162E+00 0.30000000E+03</pdfrwt>
<pdfrwt beam="2">0</pdfrwt>
<totfact> 0.85857996E+00</totfact>
</mgrwt>
</event>
<event>
 6    1  0.1940992E-004  0.3000000E+03  0.7818608E-02  0.1093470E+00
          1   -1    0    0  502    0  0.00000000000E+00  0.00000000000E+00  0.32731207549E+02  0.32731207549E+02  0.00000000000E+00 0.  1.
         13   -1    0    0    0    0 -0.00000000000E+00 -0.00000000000E+00 -0.10000000000E+04  0.10000000000E+04  0.00000000000E+00 0.  1.
    9000005    2    1    2  501    0 -0.23358510680E+02  0.27034700936E+01 -0.93462836716E+03  0.99250278308E+03  0.33313459886E+03 0.  0.
         13    1    3    3    0    0 -0.24010851651E+02  0.75727911822E+02 -0.91284553453E+03  0.91629591702E+03  0.00000000000E+00 0.  1.
          3    1    3    3  501    0  0.65234097107E+00 -0.73024441728E+02 -0.21782832626E+02  0.76206866066E+02  0.00000000000E+00 0.  1.
         21    1    1    2  502  501  0.23358510680E+02 -0.27034700936E+01 -0.32640425291E+02  0.40228424465E+02  0.00000000000E+00 0.  1.
<mgrwt>
<rscale>  1 0.30000000E+03</rscale>
<asrwt>0</asrwt>
<pdfrwt beam="1">  1        1 0.11902282E+00 0.30000000E+03</pdfrwt>
<pdfrwt beam="2">0</pdfrwt>
<totfact> 0.26329593E+01</totfact>
</mgrwt>
</event>
<event>
 6    1  0.1940992E-004  0.3000000E+03  0.7818608E-02  0.1093470E+00
          3   -1    0    0  502    0  0.00000000000E+00  0.00000000000E+00  0.33979587204E+02  0.33979587204E+02  0.00000000000E+00 0.  1.
         13   -1    0    0    0    0 -0.00000000000E+00 -0.00000000000E+00 -0.10000000000E+04  0.10000000000E+04  0.00000000000E+00 0.  1.
    9000005    2    1    2  501    0 -0.55853563618E+01 -0.84474698862E+01 -0.96132259679E+03  0.10228160112E+04  0.34915455286E+03 0.  0.
         13    1    3    3    0    0  0.13066874531E+03  0.10789192109E+03 -0.43540591508E+03  0.46721868383E+03  0.00000000000E+00 0.  1.
          1    1    3    3  501    0 -0.13625410167E+03 -0.11633939097E+03 -0.52591668171E+03  0.55559732740E+03  0.00000000000E+00 0.  1.
         21    1    1    2  502  501  0.55853563618E+01  0.84474698862E+01 -0.46978160027E+01  0.11163575967E+02  0.00000000000E+00 0. -1.
<mgrwt>
<rscale>  1 0.30000000E+03</rscale>
<asrwt>0</asrwt>
<pdfrwt beam="1">  1        3 0.12356240E+00 0.30000000E+03</pdfrwt>
<pdfrwt beam="2">0</pdfrwt>
<totfact> 0.21028353E+00</totfact>
</mgrwt>
</event>
<event>
 6    1  0.1940992E-004  0.3000000E+03  0.7818608E-02  0.1093470E+00
          1   -1    0    0  502    0  0.00000000000E+00  0.00000000000E+00  0.36079266893E+02  0.36079266893E+02  0.00000000000E+00 0.  1.
         13   -1    0    0    0    0 -0.00000000000E+00 -0.00000000000E+00 -0.10000000000E+04  0.10000000000E+04  0.00000000000E+00 0.  1.
    9000005    2    1    2  501    0 -0.45508798713E+01 -0.15614376006E+02 -0.96709071139E+03  0.10195091731E+04  0.32228867611E+03 0.  0.
         13    1    3    3    0    0  0.58983496394E+02 -0.57615989320E+02 -0.93201948064E+03  0.93565964291E+03  0.00000000000E+00 0.  1.
          3    1    3    3  501    0 -0.63534376265E+02  0.42001613314E+02 -0.35071230748E+02  0.83849530199E+02  0.00000000000E+00 0.  1.
         21    1    1    2  502  501  0.45508798713E+01  0.15614376006E+02  0.31699782842E+01  0.16570093784E+02  0.00000000000E+00 0.  1.
<mgrwt>
<rscale>  1 0.30000000E+03</rscale>
<asrwt>0</asrwt>
<pdfrwt beam="1">  1        1 0.13119761E+00 0.30000000E+03</pdfrwt>
<pdfrwt beam="2">0</pdfrwt>
<totfact> 0.22539578E+01</totfact>
</mgrwt>
</event>
<event>
 6    1  0.1940992E-004  0.3000000E+03  0.7818608E-02  0.1093470E+00
          1   -1    0    0  502    0  0.00000000000E+00  0.00000000000E+00  0.31361641357E+02  0.31361641357E+02  0.00000000000E+00 0.  1.
         13   -1    0    0    0    0 -0.00000000000E+00 -0.00000000000E+00 -0.10000000000E+04  0.10000000000E+04  0.00000000000E+00 0.  1.
    9000005    2    1    2  501    0  0.25755705790E+02 -0.27768158828E+00 -0.87013469911E+03  0.92954610016E+03  0.32597258203E+03 0.  0.
         13    1    3    3    0    0  0.77177583134E+02 -0.11597011327E+03 -0.71908952494E+03  0.73245832058E+03  0.00000000000E+00 0.  1.
          3    1    3    3  501    0 -0.51421877344E+02  0.11569243169E+03 -0.15104517417E+03  0.19708777958E+03  0.00000000000E+00 0.  1.
         21    1    1    2  502  501 -0.25755705790E+02  0.27768158828E+00 -0.98503659535E+02  0.10181554120E+03  0.00000000000E+00 0.  1.
<mgrwt>
<rscale>  1 0.30000000E+03</rscale>
<asrwt>0</asrwt>
<pdfrwt beam="1">  1        1 0.11404257E+00 0.30000000E+03</pdfrwt>
<pdfrwt beam="2">0</pdfrwt>
<totfact> 0.28124020E+01</totfact>
</mgrwt>
</event>
<event>
 6    1  0.1940992E-004  0.3000000E+03  0.7818608E-02  0.1093470E+00
          1   -1    0    0  502    0  0.00000000000E+00  0.00000000000E+00  0.28769673302E+02  0.28769673302E+02  0.00000000000E+00 0.  1.
         13   -1    0    0    0    0 -0.00000000000E+00 -0.00000000000E+00 -0.10000000000E+04  0.10000000000E+04  0.00000000000E+00 0.  1.
    9000005    2    1    2  501    0  0.70498298072E+01 -0.71187018582E+01 -0.96874027343E+03  0.10184460895E+04  0.31412472668E+03 0.  0.
         13    1    3    3    0    0 -0.56837555943E+02  0.13133899751E+03 -0.64367894408E+03  0.65939595319E+03  0.00000000000E+00 0.  1.
          3    1    3    3  501    0  0.63887385750E+02 -0.13845769937E+03 -0.32506132935E+03  0.35905013634E+03  0.00000000000E+00 0.  1.
         21    1    1    2  502  501 -0.70498298072E+01  0.71187018582E+01 -0.24900532667E+01  0.10323583764E+02  0.00000000000E+00 0. -1.
<mgrwt>
<rscale>  1 0.30000000E+03</rscale>
<asrwt>0</asrwt>
<pdfrwt beam="1">  1        1 0.10461721E+00 0.30000000E+03</pdfrwt>
<pdfrwt beam="2">0</pdfrwt>
<totfact> 0.32025871E+01</totfact>
</mgrwt>
</event>
<event>
 6    1  0.1940992E-004  0.3000000E+03  0.7818608E-02  0.1093470E+00
          1   -1    0    0  502    0  0.00000000000E+00  0.00000000000E+00  0.30186454171E+02  0.30186454171E+02  0.00000000000E+00 0.  1.
         13   -1    0    0    0    0 -0.00000000000E+00 -0.00000000000E+00 -0.10000000000E+04  0.10000000000E+04  0.00000000000E+00 0.  1.
    9000005    2    1    2  501    0 -0.18443813598E+02 -0.82388198578E+01 -0.88429753759E+03  0.94231700511E+03  0.32491714440E+03 0.  0.
         13    1    3    3    0    0  0.12085729292E+03 -0.90270616727E+02 -0.55997362104E+03  0.57993596695E+03  0.00000000000E+00 0.  1.
          1    1    3    3  501    0 -0.13930110652E+03  0.82031796869E+02 -0.32432391654E+03  0.36238103816E+03  0.00000000000E+00 0.  1.
         21    1    1    2  502  501  0.18443813598E+02  0.82388198578E+01 -0.85516008242E+02  0.87869449061E+02  0.00000000000E+00 0. -1.
<mgrwt>
<rscale>  1 0.30000000E+03</rscale>
<asrwt>0</asrwt>
<pdfrwt beam="1">  1        1 0.10976916E+00 0.30000000E+03</pdfrwt>
<pdfrwt beam="2">0</pdfrwt>
<totfact> 0.29803979E+01</totfact>
</mgrwt>
</event>
<event>
 6    1  0.1940992E-004  0.3000000E+03  0.7818608E-02  0.1093470E+00
          1   -1    0    0  502    0  0.00000000000E+00  0.00000000000E+00  0.51010892667E+02  0.51010892667E+02  0.00000000000E+00 0.  1.
         13   -1    0    0    0    0 -0.00000000000E+00 -0.00000000000E+00 -0.10000000000E+04  0.10000000000E+04  0.00000000000E+00 0.  1.
    9000005    2    1    2  501    0  0.42542115219E+02 -0.18747470533E+02 -0.94578591878E+03  0.10044108966E+04  0.33491632652E+03 0.  0.
         13    1    3    3    0    0 -0.60245904615E+02 -0.12972204508E+03 -0.71008911521E+03  0.72435069514E+03  0.00000000000E+00 0.  1.
          1    1    3    3  501    0  0.10278801983E+03  0.11097457454E+03 -0.23569680357E+03  0.28006020144E+03  0.00000000000E+00 0.  1.
         21    1    1    2  502  501 -0.42542115219E+02  0.18747470533E+02 -0.32031885487E+01  0.46599996090E+02  0.00000000000E+00 0.  1.
<mgrwt>
<rscale>  1 0.30000000E+03</rscale>
<asrwt>0</asrwt>
<pdfrwt beam="1">  1        1 0.18549455E+00 0.30000000E+03</pdfrwt>
<pdfrwt beam="2">0</pdfrwt>
<totfact> 0.12018381E+01</totfact>
</mgrwt>
</event>
<event>
 6    1  0.1940992E-004  0.3000000E+03  0.7818608E-02  0.1093470E+00
          1   -1    0    0  502    0  0.00000000000E+00  0.00000000000E+00  0.98192945162E+02  0.98192945162E+02  0.00000000000E+00 0.  1.
         13   -1    0    0    0    0 -0.00000000000E+00 -0.00000000000E+00 -0.10000000000E+04  0.10000000000E+04  0.00000000000E+00 0.  1.
    9000005    2    1    2  501    0  0.77615746263E+02  0.34664770591E+02 -0.94390516274E+03  0.10033346241E+04  0.32938967993E+03 0.  0.
         13    1    3    3    0    0  0.19269155573E+03 -0.37149080185E+02 -0.44561352033E+03  0.48691015527E+03  0.00000000000E+00 0.  1.
          1    1    3    3  501    0 -0.11507580947E+03  0.71813850775E+02 -0.49829164241E+03  0.51642446881E+03  0.00000000000E+00 0.  1.
         21    1    1    2  502  501 -0.77615746263E+02 -0.34664770591E+02  0.42098107907E+02  0.94858321076E+02  0.00000000000E+00 0.  1.
<mgrwt>
<rscale>  1 0.30000000E+03</rscale>
<asrwt>0</asrwt>
<pdfrwt beam="1">  1        1 0.35706601E+00 0.30000000E+03</pdfrwt>
<pdfrwt beam="2">0</pdfrwt>
<totfact> 0.18097705E+00</totfact>
</mgrwt>
</event>
<event>
 6    1  0.1940992E-004  0.3000000E+03  0.7818608E-02  0.1093470E+00
          1   -1    0    0  502    0  0.00000000000E+00  0.00000000000E+00  0.41669644646E+02  0.41669644646E+02  0.00000000000E+00 0.  1.
         13   -1    0    0    0    0 -0.00000000000E+00 -0.00000000000E+00 -0.10000000000E+04  0.10000000000E+04  0.00000000000E+00 0.  1.
    9000005    2    1    2  501    0 -0.26772286181E+02 -0.18533226264E+02 -0.95523830617E+03  0.10089619001E+04  0.32320838255E+03 0.  0.
         13    1    3    3    0    0  0.75206721446E+02  0.12207798865E+03 -0.54325226148E+03  0.56185594761E+03  0.00000000000E+00 0.  1.
          3    1    3    3  501    0 -0.10197900763E+03 -0.14061121491E+03 -0.41198604469E+03  0.44710595252E+03  0.00000000000E+00 0.  1.
         21    1    1    2  502  501  0.26772286181E+02  0.18533226264E+02 -0.30920491809E+01  0.32707744515E+02  0.00000000000E+00 0. -1.
<mgrwt>
<rscale>  1 0.30000000E+03</rscale>
<asrwt>0</asrwt>
<pdfrwt beam="1">  1        1 0.15152630E+00 0.30000000E+03</pdfrwt>
<pdfrwt beam="2">0</pdfrwt>
<totfact> 0.17647424E+01</totfact>
</mgrwt>
</event>
<event>
 6    1  0.1940992E-004  0.3000000E+03  0.7818608E-02  0.1093470E+00
          1   -1    0    0  502    0  0.00000000000E+00  0.00000000000E+00  0.28217073122E+02  0.28217073122E+02  0.00000000000E+00 0.  1.
         13   -1    0    0    0    0 -0.00000000000E+00 -0.00000000000E+00 -0.10000000000E+04  0.10000000000E+04  0.00000000000E+00 0.  1.
    9000005    2    1    2  501    0 -0.16768191932E+02  0.10765549544E+02 -0.93913545125E+03  0.98996884463E+03  0.31251535679E+03 0.  0.
         13    1    3    3    0    0 -0.28621828031E+02  0.30375500336E+02 -0.95883977533E+03  0.95974767247E+03  0.00000000000E+00 0.  1.
          1    1    3    3  501    0  0.11853636099E+02 -0.19609950792E+02  0.19704324085E+02  0.30221172156E+02  0.00000000000E+00 0.  1.
         21    1    1    2  502  501  0.16768191932E+02 -0.10765549544E+02 -0.32647475631E+02  0.38248228491E+02  0.00000000000E+00 0.  1.
<mgrwt>
<rscale>  1 0.30000000E+03</rscale>
<asrwt>0</asrwt>
<pdfrwt beam="1">  1        1 0.10260775E+00 0.30000000E+03</pdfrwt>
<pdfrwt beam="2">0</pdfrwt>
<totfact> 0.32957608E+01</totfact>
</mgrwt>
</event>
<event>
 6    1  0.1940992E-004  0.3000000E+03  0.7818608E-02  0.1093470E+00
          1   -1    0    0  502    0  0.00000000000E+00  0.00000000000E+00  0.44670425311E+02  0.44670425311E+02  0.00000000000E+00 0.  1.
         13   -1    0    0    0    0 -0.00000000000E+00 -0.00000000000E+00 -0.10000000000E+04  0.10000000000E+04  0.00000000000E+00 0.  1.
    9000005    2    1    2  501    0  0.34147551762E+02 -0.25729842386E+02 -0.94627010773E+03  0.10009651165E+04  0.32353665557E+03 0.  0.
         13    1    3    3    0    0  0.78263286831E+02  0.13698120567E+03 -0.45588500622E+03  0.48241074995E+03  0.00000000000E+00 0.  1.
          1    1    3    3  501    0 -0.44115735068E+02 -0.16271104805E+03 -0.49038510151E+03  0.51855436651E+03  0.00000000000E+00 0.  1.
         21    1    1    2  502  501 -0.34147551762E+02  0.25729842386E+02 -0.90594669589E+01  0.43705308856E+02  0.00000000000E+00 0. -1.
<mgrwt>
<rscale>  1 0.30000000E+03</rscale>
<asrwt>0</asrwt>
<pdfrwt beam="1">  1        1 0.16243825E+00 0.30000000E+03</pdfrwt>
<pdfrwt beam="2">0</pdfrwt>
<totfact> 0.15563848E+01</totfact>
</mgrwt>
</event>
<event>
 6    1  0.1940992E-004  0.3000000E+03  0.7818608E-02  0.1093470E+00
          1   -1    0    0  502    0  0.00000000000E+00  0.00000000000E+00  0.58156836281E+02  0.58156836281E+02  0.00000000000E+00 0.  1.
         13   -1    0    0    0    0 -0.00000000000E+00 -0.00000000000E+00 -0.10000000000E+04  0.10000000000E+04  0.00000000000E+00 0.  1.
    9000005    2    1    2  501    0  0.22238467023E+02  0.23132715168E+01 -0.95748384498E+03  0.10308707308E+04  0.38133875966E+03 0.  0.
         13    1    3    3    0    0  0.14266131117E+03 -0.11888092441E+03 -0.68093892525E+03  0.70580644925E+03  0.00000000000E+00 0.  1.
          1    1    3    3  501    0 -0.12042284415E+03  0.12119419593E+03 -0.27654491974E+03  0.32506428157E+03  0.00000000000E+00 0.  1.
         21    1    1    2  502  501 -0.22238467023E+02 -0.23132715168E+01  0.15640681265E+02  0.27286105458E+02  0.00000000000E+00 0.  1.
<mgrwt>
<rscale>  1 0.30000000E+03</rscale>
<asrwt>0</asrwt>
<pdfrwt beam="1">  1        1 0.21147985E+00 0.30000000E+03</pdfrwt>
<pdfrwt beam="2">0</pdfrwt>
<totfact> 0.90390590E+00</totfact>
</mgrwt>
</event>
<event>
 6    1  0.1940992E-004  0.3000000E+03  0.7818608E-02  0.1093470E+00
          1   -1    0    0  502    0  0.00000000000E+00  0.00000000000E+00  0.42172074941E+02  0.42172074941E+02  0.00000000000E+00 0.  1.
         13   -1    0    0    0    0 -0.00000000000E+00 -0.00000000000E+00 -0.10000000000E+04  0.10000000000E+04  0.00000000000E+00 0.  1.
    9000005    2    1    2  501    0 -0.20724505510E+02  0.78509800802E+01 -0.96371052660E+03  0.10192428792E+04  0.33109956915E+03 0.  0.
         13    1    3    3    0    0 -0.40479894133E+02  0.15018442298E+03 -0.27723535775E+03  0.31788901573E+03  0.00000000000E+00 0.  1.
          3    1    3    3  501    0  0.19755388624E+02 -0.14233344290E+03 -0.68647516885E+03  0.70135386346E+03  0.00000000000E+00 0.  1.
         21    1    1    2  502  501  0.20724505510E+02 -0.78509800802E+01  0.58826015398E+01  0.22929195749E+02  0.00000000000E+00 0.  1.
<mgrwt>
<rscale>  1 0.30000000E+03</rscale>
<asrwt>0</asrwt>
<pdfrwt beam="1">  1        1 0.15335332E+00 0.30000000E+03</pdfrwt>
<pdfrwt beam="2">0</pdfrwt>
<totfact> 0.17276325E+01</totfact>
</mgrwt>
</event>
<event>
 6    1  0.1940992E-004  0.3000000E+03  0.7818608E-02  0.1093470E+00
          1   -1    0    0  502    0  0.00000000000E+00  0.00000000000E+00  0.33440637840E+02  0.33440637840E+02  0.00000000000E+00 0.  1.
         13   -1    0    0    0    0 -0.00000000000E+00 -0.00000000000E+00 -0.10000000000E+04  0.10000000000E+04  0.00000000000E+00 0.  1.
    9000005    2    1    2  501    0 -0.11127964195E+02 -0.11013633684E+02 -0.94802679814E+03  0.10091798126E+04  0.34560664400E+03 0.  0.
         13    1    3    3    0    0 -0.12837570908E+03 -0.12699266395E+03 -0.52162042423E+03  0.55199214338E+03  0.00000000000E+00 0.  1.
          1    1    3    3  501    0  0.11724774489E+03  0.11597903026E+03 -0.42640637391E+03  0.45718766918E+03  0.00000000000E+00 0.  1.
         21    1    1    2  502  501  0.11127964195E+02  0.11013633684E+02 -0.18532564023E+02  0.24260825281E+02  0.00000000000E+00 0.  1.
<mgrwt>
<rscale>  1 0.30000000E+03</rscale>
<asrwt>0</asrwt>
<pdfrwt beam="1">  1        1 0.12160258E+00 0.30000000E+03</pdfrwt>
<pdfrwt beam="2">0</pdfrwt>
<totfact> 0.25461091E+01</totfact>
</mgrwt>
</event>
<event>
 6    1  0.1940992E-004  0.3000000E+03  0.7818608E-02  0.1093470E+00
          1   -1    0    0  502    0  0.00000000000E+00  0.00000000000E+00  0.25024539047E+02  0.25024539047E+02  0.00000000000E+00 0.  1.
         13   -1    0    0    0    0 -0.00000000000E+00 -0.00000000000E+00 -0.10000000000E+04  0.10000000000E+04  0.00000000000E+00 0.  1.
    9000005    2    1    2  501    0 -0.46581572870E+02  0.42860112321E+02 -0.82201349698E+03  0.85948241576E+03  0.24289298390E+03 0.  0.
         13    1    3    3    0    0 -0.39529451584E+02 -0.96275969436E+02 -0.45906981141E+03  0.47071937668E+03  0.00000000000E+00 0.  1.
          3    1    3    3  501    0 -0.70521212858E+01  0.13913608176E+03 -0.36294368557E+03  0.38876303908E+03  0.00000000000E+00 0.  1.
         21    1    1    2  502  501  0.46581572870E+02 -0.42860112321E+02 -0.15296196398E+03  0.16554212329E+03  0.00000000000E+00 0.  1.
<mgrwt>
<rscale>  1 0.30000000E+03</rscale>
<asrwt>0</asrwt>
<pdfrwt beam="1">  1        1 0.90998516E-01 0.30000000E+03</pdfrwt>
<pdfrwt beam="2">0</pdfrwt>
<totfact> 0.39212693E+01</totfact>
</mgrwt>
</event>
<event>
 6    1  0.1940992E-004  0.3000000E+03  0.7818608E-02  0.1093470E+00
          1   -1    0    0  502    0  0.00000000000E+00  0.00000000000E+00  0.47671509578E+02  0.47671509578E+02  0.00000000000E+00 0.  1.
         13   -1    0    0    0    0 -0.00000000000E+00 -0.00000000000E+00 -0.10000000000E+04  0.10000000000E+04  0.00000000000E+00 0.  1.
    9000005    2    1    2  501    0  0.33210674662E+01 -0.33929116302E+02 -0.95716251794E+03  0.10132392247E+04  0.33065302996E+03 0.  0.
         13    1    3    3    0    0  0.87535560551E+02  0.10587843408E+03 -0.22931193652E+03  0.26731382567E+03  0.00000000000E+00 0.  1.
          3    1    3    3  501    0 -0.84214493084E+02 -0.13980755038E+03 -0.72785058142E+03  0.74592539900E+03  0.00000000000E+00 0.  1.
         21    1    1    2  502  501 -0.33210674662E+01  0.33929116302E+02  0.48340275222E+01  0.34432284911E+02  0.00000000000E+00 0.  1.
<mgrwt>
<rscale>  1 0.30000000E+03</rscale>
<asrwt>0</asrwt>
<pdfrwt beam="1">  1        1 0.17335131E+00 0.30000000E+03</pdfrwt>
<pdfrwt beam="2">0</pdfrwt>
<totfact> 0.13759554E+01</totfact>
</mgrwt>
</event>
<event>
 6    1  0.1940992E-004  0.3000000E+03  0.7818608E-02  0.1093470E+00
          1   -1    0    0  502    0  0.00000000000E+00  0.00000000000E+00  0.29242459802E+02  0.29242459802E+02  0.00000000000E+00 0.  1.
         13   -1    0    0    0    0 -0.00000000000E+00 -0.00000000000E+00 -0.10000000000E+04  0.10000000000E+04  0.00000000000E+00 0.  1.
    9000005    2    1    2  501    0 -0.86480619333E+01 -0.95508403752E+01 -0.95367278879E+03  0.10078439492E+04  0.32571710156E+03 0.  0.
         13    1    3    3    0    0 -0.13401768551E+02  0.10084108941E+03 -0.85084619549E+03  0.85690593480E+03  0.00000000000E+00 0.  1.
          3    1    3    3  501    0  0.47537066174E+01 -0.11039192979E+03 -0.10282659330E+03  0.15093801436E+03  0.00000000000E+00 0.  1.
         21    1    1    2  502  501  0.86480619333E+01  0.95508403752E+01 -0.17084751408E+02  0.21398510643E+02  0.00000000000E+00 0. -1.
<mgrwt>
<rscale>  1 0.30000000E+03</rscale>
<asrwt>0</asrwt>
<pdfrwt beam="1">  1        1 0.10633644E+00 0.30000000E+03</pdfrwt>
<pdfrwt beam="2">0</pdfrwt>
<totfact> 0.31258712E+01</totfact>
</mgrwt>
</event>
<event>
 6    1  0.1940992E-004  0.3000000E+03  0.7818608E-02  0.1093470E+00
          1   -1    0    0  502    0  0.00000000000E+00  0.00000000000E+00  0.35983411972E+02  0.35983411972E+02  0.00000000000E+00 0.  1.
         13   -1    0    0    0    0 -0.00000000000E+00 -0.00000000000E+00 -0.10000000000E+04  0.10000000000E+04  0.00000000000E+00 0.  1.
    9000005    2    1    2  501    0 -0.69809598564E+01 -0.11662053870E+02 -0.96792820026E+03  0.10218399325E+04  0.32724166836E+03 0.  0.
         13    1    3    3    0    0  0.59416369337E+02 -0.15300253802E+03 -0.60221678753E+03  0.62418357938E+03  0.00000000000E+00 0.  1.
          3    1    3    3  501    0 -0.66397329193E+02  0.14134048415E+03 -0.36571141273E+03  0.39765635313E+03  0.00000000000E+00 0.  1.
         21    1    1    2  502  501  0.69809598564E+01  0.11662053870E+02  0.39116122332E+01  0.14143479460E+02  0.00000000000E+00 0.  1.
<mgrwt>
<rscale>  1 0.30000000E+03</rscale>
<asrwt>0</asrwt>
<pdfrwt beam="1">  1        1 0.13084905E+00 0.30000000E+03</pdfrwt>
<pdfrwt beam="2">0</pdfrwt>
<totfact> 0.22637909E+01</totfact>
</mgrwt>
</event>
<event>
 6    1  0.1940992E-004  0.3000000E+03  0.7818608E-02  0.1093470E+00
          1   -1    0    0  502    0  0.00000000000E+00  0.00000000000E+00  0.37473303756E+02  0.37473303756E+02  0.00000000000E+00 0.  1.
         13   -1    0    0    0    0 -0.00000000000E+00 -0.00000000000E+00 -0.10000000000E+04  0.10000000000E+04  0.00000000000E+00 0.  1.
    9000005    2    1    2  501    0 -0.10641747656E+02 -0.22029940700E+02 -0.96279449136E+03  0.10130062485E+04  0.31402207209E+03 0.  0.
         13    1    3    3    0    0 -0.15509408118E+03  0.35982441023E+02 -0.49920654495E+03  0.52398099641E+03  0.00000000000E+00 0.  1.
          1    1    3    3  501    0  0.14445233352E+03 -0.58012381722E+02 -0.46358794641E+03  0.48902525206E+03  0.00000000000E+00 0.  1.
         21    1    1    2  502  501  0.10641747656E+02  0.22029940700E+02  0.26779511374E+00  0.24467055291E+02  0.00000000000E+00 0. -1.
<mgrwt>
<rscale>  1 0.30000000E+03</rscale>
<asrwt>0</asrwt>
<pdfrwt beam="1">  1        1 0.13626685E+00 0.30000000E+03</pdfrwt>
<pdfrwt beam="2">0</pdfrwt>
<totfact> 0.21171072E+01</totfact>
</mgrwt>
</event>
<event>
 6    1  0.1940992E-004  0.3000000E+03  0.7818608E-02  0.1093470E+00
          1   -1    0    0  502    0  0.00000000000E+00  0.00000000000E+00  0.71779700120E+02  0.71779700120E+02  0.00000000000E+00 0.  1.
         13   -1    0    0    0    0 -0.00000000000E+00 -0.00000000000E+00 -0.10000000000E+04  0.10000000000E+04  0.00000000000E+00 0.  1.
    9000005    2    1    2  501    0 -0.11488797186E+01  0.35503777073E+02 -0.96627103652E+03  0.10197249533E+04  0.32387872139E+03 0.  0.
         13    1    3    3    0    0  0.39826043038E+01 -0.85506730547E+02 -0.57964617453E+02  0.10337871629E+03  0.00000000000E+00 0.  1.
          1    1    3    3  501    0 -0.51314840224E+01  0.12101050762E+03 -0.90830641907E+03  0.91634623697E+03  0.00000000000E+00 0.  1.
         21    1    1    2  502  501  0.11488797186E+01 -0.35503777073E+02  0.38050736645E+02  0.52054746856E+02  0.00000000000E+00 0.  1.
<mgrwt>
<rscale>  1 0.30000000E+03</rscale>
<asrwt>0</asrwt>
<pdfrwt beam="1">  1        1 0.26101764E+00 0.30000000E+03</pdfrwt>
<pdfrwt beam="2">0</pdfrwt>
<totfact> 0.52996496E+00</totfact>
</mgrwt>
</event>
<event>
 6    1  0.1940992E-004  0.3000000E+03  0.7818608E-02  0.1093470E+00
          3   -1    0    0  502    0  0.00000000000E+00  0.00000000000E+00  0.32242894439E+02  0.32242894439E+02  0.00000000000E+00 0.  1.
         13   -1    0    0    0    0 -0.00000000000E+00 -0.00000000000E+00 -0.10000000000E+04  0.10000000000E+04  0.00000000000E+00 0.  1.
    9000005    2    1    2  501    0  0.96039694400E+01 -0.31449248458E+01 -0.96875596227E+03  0.10220878712E+04  0.32568907769E+03 0.  0.
         13    1    3    3    0    0  0.22024291801E+02 -0.11711819456E+03 -0.84510045912E+03  0.85346149704E+03  0.00000000000E+00 0.  1.
          3    1    3    3  501    0 -0.12420322361E+02  0.11397326972E+03 -0.12365550315E+03  0.16862637420E+03  0.00000000000E+00 0.  1.
         21    1    1    2  502  501 -0.96039694400E+01  0.31449248458E+01  0.99885671200E+00  0.10155023192E+02  0.00000000000E+00 0. -1.
<mgrwt>
<rscale>  1 0.30000000E+03</rscale>
<asrwt>0</asrwt>
<pdfrwt beam="1">  1        3 0.11724714E+00 0.30000000E+03</pdfrwt>
<pdfrwt beam="2">0</pdfrwt>
<totfact> 0.24890040E+00</totfact>
</mgrwt>
</event>
<event>
 6    1  0.1940992E-004  0.3000000E+03  0.7818608E-02  0.1093470E+00
          3   -1    0    0  502    0  0.00000000000E+00  0.00000000000E+00  0.37423636106E+02  0.37423636106E+02  0.00000000000E+00 0.  1.
         13   -1    0    0    0    0 -0.00000000000E+00 -0.00000000000E+00 -0.10000000000E+04  0.10000000000E+04  0.00000000000E+00 0.  1.
    9000005    2    1    2  501    0 -0.19853814488E+02 -0.74673613300E+01 -0.96228881053E+03  0.10162100055E+04  0.32593417289E+03 0.  0.
         13    1    3    3    0    0  0.13269342073E+03  0.60060142220E+02 -0.30370610230E+03  0.33682660401E+03  0.00000000000E+00 0.  1.
          1    1    3    3  501    0 -0.15254723522E+03 -0.67527503551E+02 -0.65858270822E+03  0.67938340153E+03  0.00000000000E+00 0.  1.
         21    1    1    2  502  501  0.19853814488E+02  0.74673613300E+01 -0.28755336840E+00  0.21213630569E+02  0.00000000000E+00 0. -1.
<mgrwt>
<rscale>  1 0.30000000E+03</rscale>
<asrwt>0</asrwt>
<pdfrwt beam="1">  1        3 0.13608624E+00 0.30000000E+03</pdfrwt>
<pdfrwt beam="2">0</pdfrwt>
<totfact> 0.14973443E+00</totfact>
</mgrwt>
</event>
<event>
 6    1  0.1940992E-004  0.3000000E+03  0.7818608E-02  0.1093470E+00
          1   -1    0    0  502    0  0.00000000000E+00  0.00000000000E+00  0.28285611612E+02  0.28285611612E+02  0.00000000000E+00 0.  1.
         13   -1    0    0    0    0 -0.00000000000E+00 -0.00000000000E+00 -0.10000000000E+04  0.10000000000E+04  0.00000000000E+00 0.  1.
    9000005    2    1    2  501    0 -0.67307730729E+01 -0.76750370590E+01 -0.96366347770E+03  0.10152845862E+04  0.31945466522E+03 0.  0.
         13    1    3    3    0    0 -0.15231729402E+03  0.53797391690E+02 -0.47845228376E+03  0.50498644065E+03  0.00000000000E+00 0.  1.
          3    1    3    3  501    0  0.14558652095E+03 -0.61472428749E+02 -0.48521119394E+03  0.51029814550E+03  0.00000000000E+00 0.  1.
         21    1    1    2  502  501  0.67307730729E+01  0.76750370590E+01 -0.80509106859E+01  0.13001025455E+02  0.00000000000E+00 0.  1.
<mgrwt>
<rscale>  1 0.30000000E+03</rscale>
<asrwt>0</asrwt>
<pdfrwt beam="1">  1        1 0.10285699E+00 0.30000000E+03</pdfrwt>
<pdfrwt beam="2">0</pdfrwt>
<totfact> 0.32839917E+01</totfact>
</mgrwt>
</event>
<event>
 6    1  0.1940992E-004  0.3000000E+03  0.7818608E-02  0.1093470E+00
          1   -1    0    0  502    0  0.00000000000E+00  0.00000000000E+00  0.38734718338E+02  0.38734718338E+02  0.00000000000E+00 0.  1.
         13   -1    0    0    0    0 -0.00000000000E+00 -0.00000000000E+00 -0.10000000000E+04  0.10000000000E+04  0.00000000000E+00 0.  1.
    9000005    2    1    2  501    0 -0.10458210294E+02 -0.15872570666E+02 -0.96636767125E+03  0.10190535842E+04  0.32286594548E+03 0.  0.
         13    1    3    3    0    0  0.12747283152E+03  0.75774469791E+02 -0.33549445733E+03  0.36680733901E+03  0.00000000000E+00 0.  1.
          1    1    3    3  501    0 -0.13793104181E+03 -0.91647040457E+02 -0.63087321391E+03  0.65224624518E+03  0.00000000000E+00 0.  1.
         21    1    1    2  502  501  0.10458210294E+02  0.15872570666E+02  0.51023895830E+01  0.19681134153E+02  0.00000000000E+00 0.  1.
<mgrwt>
<rscale>  1 0.30000000E+03</rscale>
<asrwt>0</asrwt>
<pdfrwt beam="1">  1        1 0.14085382E+00 0.30000000E+03</pdfrwt>
<pdfrwt beam="2">0</pdfrwt>
<totfact> 0.20025020E+01</totfact>
</mgrwt>
</event>
<event>
 6    1  0.1940992E-004  0.3000000E+03  0.7818608E-02  0.1093470E+00
          3   -1    0    0  502    0  0.00000000000E+00  0.00000000000E+00  0.33840595793E+02  0.33840595793E+02  0.00000000000E+00 0.  1.
         13   -1    0    0    0    0 -0.00000000000E+00 -0.00000000000E+00 -0.10000000000E+04  0.10000000000E+04  0.00000000000E+00 0.  1.
    9000005    2    1    2  501    0  0.96600370112E+01 -0.21535005248E+02 -0.94557213719E+03  0.10025211397E+04  0.33224222515E+03 0.  0.
         13    1    3    3    0    0 -0.97023088527E+02  0.67120827129E+02 -0.76891314849E+03  0.77791137995E+03  0.00000000000E+00 0.  1.
          3    1    3    3  501    0  0.10668312554E+03 -0.88655832377E+02 -0.17665898870E+03  0.22460975976E+03  0.00000000000E+00 0.  1.
         21    1    1    2  502  501 -0.96600370112E+01  0.21535005248E+02 -0.20587267018E+02  0.31319456084E+02  0.00000000000E+00 0.  1.
<mgrwt>
<rscale>  1 0.30000000E+03</rscale>
<asrwt>0</asrwt>
<pdfrwt beam="1">  1        3 0.12305697E+00 0.30000000E+03</pdfrwt>
<pdfrwt beam="2">0</pdfrwt>
<totfact> 0.21314784E+00</totfact>
</mgrwt>
</event>
<event>
 6    1  0.1940992E-004  0.3000000E+03  0.7818608E-02  0.1093470E+00
          1   -1    0    0  502    0  0.00000000000E+00  0.00000000000E+00  0.49375350656E+02  0.49375350656E+02  0.00000000000E+00 0.  1.
         13   -1    0    0    0    0 -0.00000000000E+00 -0.00000000000E+00 -0.10000000000E+04  0.10000000000E+04  0.00000000000E+00 0.  1.
    9000005    2    1    2  501    0  0.55797620664E+01  0.18932155995E+02 -0.97178353609E+03  0.10204399266E+04  0.31071665960E+03 0.  0.
         13    1    3    3    0    0  0.13298662189E+03  0.21685901326E+02 -0.22039192942E+03  0.25831825811E+03  0.00000000000E+00 0.  1.
          3    1    3    3  501    0 -0.12740685983E+03 -0.27537453313E+01 -0.75139160667E+03  0.76212166851E+03  0.00000000000E+00 0.  1.
         21    1    1    2  502  501 -0.55797620664E+01 -0.18932155995E+02  0.21158886749E+02  0.28935424030E+02  0.00000000000E+00 0.  1.
<mgrwt>
<rscale>  1 0.30000000E+03</rscale>
<asrwt>0</asrwt>
<pdfrwt beam="1">  1        1 0.17954711E+00 0.30000000E+03</pdfrwt>
<pdfrwt beam="2">0</pdfrwt>
<totfact> 0.12839062E+01</totfact>
</mgrwt>
</event>
<event>
 6    1  0.1940992E-004  0.3000000E+03  0.7818608E-02  0.1093470E+00
          1   -1    0    0  502    0  0.00000000000E+00  0.00000000000E+00  0.28397499804E+02  0.28397499804E+02  0.00000000000E+00 0.  1.
         13   -1    0    0    0    0 -0.00000000000E+00 -0.00000000000E+00 -0.10000000000E+04  0.10000000000E+04  0.00000000000E+00 0.  1.
    9000005    2    1    2  501    0 -0.10738387017E+02  0.33634034168E+01 -0.93637583338E+03  0.99141718756E+03  0.32554832671E+03 0.  0.
         13    1    3    3    0    0  0.88298556968E+02  0.13338063114E+03 -0.40387835259E+03  0.43440160177E+03  0.00000000000E+00 0.  1.
          1    1    3    3  501    0 -0.99036943985E+02 -0.13001722772E+03 -0.53249748079E+03  0.55701558580E+03  0.00000000000E+00 0.  1.
         21    1    1    2  502  501  0.10738387017E+02 -0.33634034168E+01 -0.35226666817E+02  0.36980312239E+02  0.00000000000E+00 0. -1.
<mgrwt>
<rscale>  1 0.30000000E+03</rscale>
<asrwt>0</asrwt>
<pdfrwt beam="1">  1        1 0.10326385E+00 0.30000000E+03</pdfrwt>
<pdfrwt beam="2">0</pdfrwt>
<totfact> 0.32649102E+01</totfact>
</mgrwt>
</event>
<event>
 6    1  0.1940992E-004  0.3000000E+03  0.7818608E-02  0.1093470E+00
          3   -1    0    0  502    0  0.00000000000E+00  0.00000000000E+00  0.29157992815E+02  0.29157992815E+02  0.00000000000E+00 0.  1.
         13   -1    0    0    0    0 -0.00000000000E+00 -0.00000000000E+00 -0.10000000000E+04  0.10000000000E+04  0.00000000000E+00 0.  1.
    9000005    2    1    2  501    0 -0.73048387196E+01 -0.12593949694E+02 -0.94867478373E+03  0.10026371702E+04  0.32416890891E+03 0.  0.
         13    1    3    3    0    0 -0.10458446887E+03 -0.88358435920E+02 -0.78953917802E+03  0.80132218112E+03  0.00000000000E+00 0.  1.
          1    1    3    3  501    0  0.97279630149E+02  0.75764486226E+02 -0.15913560571E+03  0.20131498906E+03  0.00000000000E+00 0.  1.
         21    1    1    2  502  501  0.73048387196E+01  0.12593949694E+02 -0.22167223459E+02  0.26520822640E+02  0.00000000000E+00 0.  1.
<mgrwt>
<rscale>  1 0.30000000E+03</rscale>
<asrwt>0</asrwt>
<pdfrwt beam="1">  1        3 0.10602929E+00 0.30000000E+03</pdfrwt>
<pdfrwt beam="2">0</pdfrwt>
<totfact> 0.33443484E+00</totfact>
</mgrwt>
</event>
<event>
 6    1  0.1940992E-004  0.3000000E+03  0.7818608E-02  0.1093470E+00
          1   -1    0    0  502    0  0.00000000000E+00  0.00000000000E+00  0.28199224616E+02  0.28199224616E+02  0.00000000000E+00 0.  1.
         13   -1    0    0    0    0 -0.00000000000E+00 -0.00000000000E+00 -0.10000000000E+04  0.10000000000E+04  0.00000000000E+00 0.  1.
    9000005    2    1    2  501    0  0.94085770924E+01 -0.17137755909E+00 -0.94356832629E+03  0.99843982484E+03  0.32630100636E+03 0.  0.
         13    1    3    3    0    0 -0.53271399189E+02 -0.15158954074E+03 -0.52068968245E+03  0.54491740314E+03  0.00000000000E+00 0.  1.
          3    1    3    3  501    0  0.62679976281E+02  0.15141816318E+03 -0.42287864384E+03  0.45352242170E+03  0.00000000000E+00 0.  1.
         21    1    1    2  502  501 -0.94085770924E+01  0.17137755909E+00 -0.28232449099E+02  0.29759399780E+02  0.00000000000E+00 0.  1.
<mgrwt>
<rscale>  1 0.30000000E+03</rscale>
<asrwt>0</asrwt>
<pdfrwt beam="1">  1        1 0.10254285E+00 0.30000000E+03</pdfrwt>
<pdfrwt beam="2">0</pdfrwt>
<totfact> 0.32988357E+01</totfact>
</mgrwt>
</event>
<event>
 6    1  0.1940992E-004  0.3000000E+03  0.7818608E-02  0.1093470E+00
          1   -1    0    0  502    0  0.00000000000E+00  0.00000000000E+00  0.38517933599E+02  0.38517933599E+02  0.00000000000E+00 0.  1.
         13   -1    0    0    0    0 -0.00000000000E+00 -0.00000000000E+00 -0.10000000000E+04  0.10000000000E+04  0.00000000000E+00 0.  1.
    9000005    2    1    2  501    0 -0.27565020940E+02 -0.12013247515E+02 -0.95443708949E+03  0.10076346016E+04  0.32167247949E+03 0.  0.
         13    1    3    3    0    0 -0.15395111806E+03  0.56632592451E+02 -0.65814723462E+03  0.67828163746E+03  0.00000000000E+00 0.  1.
          1    1    3    3  501    0  0.12638609712E+03 -0.68645839966E+02 -0.29628985487E+03  0.32935296415E+03  0.00000000000E+00 0.  1.
         21    1    1    2  502  501  0.27565020940E+02  0.12013247515E+02 -0.70449769097E+01  0.30883331992E+02  0.00000000000E+00 0.  1.
<mgrwt>
<rscale>  1 0.30000000E+03</rscale>
<asrwt>0</asrwt>
<pdfrwt beam="1">  1        1 0.14006551E+00 0.30000000E+03</pdfrwt>
<pdfrwt beam="2">0</pdfrwt>
<totfact> 0.20216238E+01</totfact>
</mgrwt>
</event>
<event>
 6    1  0.1940992E-004  0.3000000E+03  0.7818608E-02  0.1093470E+00
          1   -1    0    0  502    0  0.00000000000E+00  0.00000000000E+00  0.36888565803E+02  0.36888565803E+02  0.00000000000E+00 0.  1.
         13   -1    0    0    0    0 -0.00000000000E+00 -0.00000000000E+00 -0.10000000000E+04  0.10000000000E+04  0.00000000000E+00 0.  1.
    9000005    2    1    2  501    0  0.18910955065E+01 -0.20662555208E+02 -0.95942257733E+03  0.10158142901E+04  0.33310129499E+03 0.  0.
         13    1    3    3    0    0  0.50363688065E+02 -0.64076747873E+02 -0.94583350574E+03  0.94933837554E+03  0.00000000000E+00 0.  1.
          1    1    3    3  501    0 -0.48472592559E+02  0.43414192664E+02 -0.13589071583E+02  0.66475914590E+02  0.00000000000E+00 0.  1.
         21    1    1    2  502  501 -0.18910955065E+01  0.20662555208E+02 -0.36888568703E+01  0.21074275669E+02  0.00000000000E+00 0.  1.
<mgrwt>
<rscale>  1 0.30000000E+03</rscale>
<asrwt>0</asrwt>
<pdfrwt beam="1">  1        1 0.13414052E+00 0.30000000E+03</pdfrwt>
<pdfrwt beam="2">0</pdfrwt>
<totfact> 0.21731317E+01</totfact>
</mgrwt>
</event>
<event>
 6    1  0.1940992E-004  0.3000000E+03  0.7818608E-02  0.1093470E+00
          1   -1    0    0  502    0  0.00000000000E+00  0.00000000000E+00  0.28839876750E+02  0.28839876750E+02  0.00000000000E+00 0.  1.
         13   -1    0    0    0    0 -0.00000000000E+00 -0.00000000000E+00 -0.10000000000E+04  0.10000000000E+04  0.00000000000E+00 0.  1.
    9000005    2    1    2  501    0  0.17521964442E+02 -0.56238053423E+01 -0.89786418140E+03  0.95326910517E+03  0.31972371232E+03 0.  0.
         13    1    3    3    0    0 -0.13003141428E+03 -0.80628969273E+02 -0.48090364905E+03  0.50465584219E+03  0.00000000000E+00 0.  1.
          1    1    3    3  501    0  0.14755337873E+03  0.75005163930E+02 -0.41696053235E+03  0.44861326299E+03  0.00000000000E+00 0.  1.
         21    1    1    2  502  501 -0.17521964442E+02  0.56238053423E+01 -0.73295941853E+02  0.75570771576E+02  0.00000000000E+00 0. -1.
<mgrwt>
<rscale>  1 0.30000000E+03</rscale>
<asrwt>0</asrwt>
<pdfrwt beam="1">  1        1 0.10487250E+00 0.30000000E+03</pdfrwt>
<pdfrwt beam="2">0</pdfrwt>
<totfact> 0.31910247E+01</totfact>
</mgrwt>
</event>
<event>
 6    1  0.1940992E-004  0.3000000E+03  0.7818608E-02  0.1093470E+00
          1   -1    0    0  502    0  0.00000000000E+00  0.00000000000E+00  0.30212211536E+02  0.30212211536E+02  0.00000000000E+00 0.  1.
         13   -1    0    0    0    0 -0.00000000000E+00 -0.00000000000E+00 -0.10000000000E+04  0.10000000000E+04  0.00000000000E+00 0.  1.
    9000005    2    1    2  501    0 -0.12422938150E+02 -0.15171055655E+01 -0.94520328659E+03  0.10026254623E+04  0.33420343154E+03 0.  0.
         13    1    3    3    0    0 -0.26652242936E+02 -0.16444297755E+03 -0.55699965748E+03  0.58137806404E+03  0.00000000000E+00 0.  1.
          1    1    3    3  501    0  0.14229304786E+02  0.16292587198E+03 -0.38820362911E+03  0.42124739825E+03  0.00000000000E+00 0.  1.
         21    1    1    2  502  501  0.12422938150E+02  0.15171055655E+01 -0.24584501876E+02  0.27586749248E+02  0.00000000000E+00 0. -1.
<mgrwt>
<rscale>  1 0.30000000E+03</rscale>
<asrwt>0</asrwt>
<pdfrwt beam="1">  1        1 0.10986282E+00 0.30000000E+03</pdfrwt>
<pdfrwt beam="2">0</pdfrwt>
<totfact> 0.29765651E+01</totfact>
</mgrwt>
</event>
<event>
 6    1  0.1940992E-004  0.3000000E+03  0.7818608E-02  0.1093470E+00
          1   -1    0    0  502    0  0.00000000000E+00  0.00000000000E+00  0.52616596227E+02  0.52616596227E+02  0.00000000000E+00 0.  1.
         13   -1    0    0    0    0 -0.00000000000E+00 -0.00000000000E+00 -0.10000000000E+04  0.10000000000E+04  0.00000000000E+00 0.  1.
    9000005    2    1    2  501    0  0.51725545570E+02  0.42893364875E+01 -0.94135041877E+03  0.10003640616E+04  0.33450517821E+03 0.  0.
         13    1    3    3    0    0  0.79403419812E+02 -0.15597659168E+03 -0.52315150143E+03  0.55165305554E+03  0.00000000000E+00 0.  1.
          3    1    3    3  501    0 -0.27677874242E+02  0.16026592817E+03 -0.41819891734E+03  0.44871100601E+03  0.00000000000E+00 0.  1.
         21    1    1    2  502  501 -0.51725545570E+02 -0.42893364875E+01 -0.60329849998E+01  0.52252534675E+02  0.00000000000E+00 0.  1.
<mgrwt>
<rscale>  1 0.30000000E+03</rscale>
<asrwt>0</asrwt>
<pdfrwt beam="1">  1        1 0.19133348E+00 0.30000000E+03</pdfrwt>
<pdfrwt beam="2">0</pdfrwt>
<totfact> 0.11266822E+01</totfact>
</mgrwt>
</event>
<event>
 6    1  0.1940992E-004  0.3000000E+03  0.7818608E-02  0.1093470E+00
          1   -1    0    0  502    0  0.00000000000E+00  0.00000000000E+00  0.34113737932E+02  0.34113737932E+02  0.00000000000E+00 0.  1.
         13   -1    0    0    0    0 -0.00000000000E+00 -0.00000000000E+00 -0.10000000000E+04  0.10000000000E+04  0.00000000000E+00 0.  1.
    9000005    2    1    2  501    0  0.35057296066E+01  0.10604912985E+02 -0.97149627390E+03  0.10216146759E+04  0.31585879985E+03 0.  0.
         13    1    3    3    0    0  0.11203570630E+03  0.38682804871E+02 -0.14375442892E+03  0.18631611501E+03  0.00000000000E+00 0.  1.
          3    1    3    3  501    0 -0.10852997669E+03 -0.28077891886E+02 -0.82774184498E+03  0.83529856087E+03  0.00000000000E+00 0.  1.
         21    1    1    2  502  501 -0.35057296066E+01 -0.10604912985E+02  0.56100118333E+01  0.12499062055E+02  0.00000000000E+00 0.  1.
<mgrwt>
<rscale>  1 0.30000000E+03</rscale>
<asrwt>0</asrwt>
<pdfrwt beam="1">  1        1 0.12405022E+00 0.30000000E+03</pdfrwt>
<pdfrwt beam="2">0</pdfrwt>
<totfact> 0.24671718E+01</totfact>
</mgrwt>
</event>
<event>
 6    1  0.1940992E-004  0.3000000E+03  0.7818608E-02  0.1093470E+00
          1   -1    0    0  502    0  0.00000000000E+00  0.00000000000E+00  0.44702872667E+02  0.44702872667E+02  0.00000000000E+00 0.  1.
         13   -1    0    0    0    0 -0.00000000000E+00 -0.00000000000E+00 -0.10000000000E+04  0.10000000000E+04  0.00000000000E+00 0.  1.
    9000005    2    1    2  501    0  0.13671368074E+02 -0.53898675740E+01 -0.97165919449E+03  0.10227102780E+04  0.31874561263E+03 0.  0.
         13    1    3    3    0    0 -0.12929871344E+03  0.62240940992E+02 -0.29823092941E+03  0.33095887855E+03  0.00000000000E+00 0.  1.
          1    1    3    3  501    0  0.14297008151E+03 -0.67630808566E+02 -0.67342826507E+03  0.69175139948E+03  0.00000000000E+00 0.  1.
         21    1    1    2  502  501 -0.13671368074E+02  0.53898675740E+01  0.16362067155E+02  0.21992594641E+02  0.00000000000E+00 0.  1.
<mgrwt>
<rscale>  1 0.30000000E+03</rscale>
<asrwt>0</asrwt>
<pdfrwt beam="1">  1        1 0.16255624E+00 0.30000000E+03</pdfrwt>
<pdfrwt beam="2">0</pdfrwt>
<totfact> 0.15542951E+01</totfact>
</mgrwt>
</event>
<event>
 6    1  0.1940992E-004  0.3000000E+03  0.7818608E-02  0.1093470E+00
          1   -1    0    0  502    0  0.00000000000E+00  0.00000000000E+00  0.34340850951E+02  0.34340850951E+02  0.00000000000E+00 0.  1.
         13   -1    0    0    0    0 -0.00000000000E+00 -0.00000000000E+00 -0.10000000000E+04  0.10000000000E+04  0.00000000000E+00 0.  1.
    9000005    2    1    2  501    0  0.11671854851E+02 -0.46475098313E+01 -0.95692064221E+03  0.10190374838E+04  0.35011776081E+03 0.  0.
         13    1    3    3    0    0  0.13671476207E+03  0.11392730854E+03 -0.47697144764E+03  0.50908950064E+03  0.00000000000E+00 0.  1.
          1    1    3    3  501    0 -0.12504290721E+03 -0.11857481838E+03 -0.47994919457E+03  0.50994798319E+03  0.00000000000E+00 0.  1.
         21    1    1    2  502  501 -0.11671854851E+02  0.46475098313E+01 -0.87385068436E+01  0.15303367118E+02  0.00000000000E+00 0. -1.
<mgrwt>
<rscale>  1 0.30000000E+03</rscale>
<asrwt>0</asrwt>
<pdfrwt beam="1">  1        1 0.12487608E+00 0.30000000E+03</pdfrwt>
<pdfrwt beam="2">0</pdfrwt>
<totfact> 0.24412534E+01</totfact>
</mgrwt>
</event>
<event>
 6    1  0.1940992E-004  0.3000000E+03  0.7818608E-02  0.1093470E+00
          1   -1    0    0  502    0  0.00000000000E+00  0.00000000000E+00  0.29428129119E+02  0.29428129119E+02  0.00000000000E+00 0.  1.
         13   -1    0    0    0    0 -0.00000000000E+00 -0.00000000000E+00 -0.10000000000E+04  0.10000000000E+04  0.00000000000E+00 0.  1.
    9000005    2    1    2  501    0 -0.11674014518E+02  0.17101672200E+01 -0.96294193283E+03  0.10153773910E+04  0.32186157409E+03 0.  0.
         13    1    3    3    0    0  0.92793197585E+02  0.11710463660E+03 -0.63539404972E+03  0.65272480561E+03  0.00000000000E+00 0.  1.
          3    1    3    3  501    0 -0.10446721210E+03 -0.11539446938E+03 -0.32754788311E+03  0.36265258540E+03  0.00000000000E+00 0.  1.
         21    1    1    2  502  501  0.11674014518E+02 -0.17101672200E+01 -0.76299380511E+01  0.14050738114E+02  0.00000000000E+00 0.  1.
<mgrwt>
<rscale>  1 0.30000000E+03</rscale>
<asrwt>0</asrwt>
<pdfrwt beam="1">  1        1 0.10701160E+00 0.30000000E+03</pdfrwt>
<pdfrwt beam="2">0</pdfrwt>
<totfact> 0.30964674E+01</totfact>
</mgrwt>
</event>
<event>
 6    1  0.1940992E-004  0.3000000E+03  0.7818608E-02  0.1093470E+00
          1   -1    0    0  502    0  0.00000000000E+00  0.00000000000E+00  0.57728559937E+02  0.57728559937E+02  0.00000000000E+00 0.  1.
         13   -1    0    0    0    0 -0.00000000000E+00 -0.00000000000E+00 -0.10000000000E+04  0.10000000000E+04  0.00000000000E+00 0.  1.
    9000005    2    1    2  501    0 -0.28859760443E+02 -0.43730494216E+01 -0.95198509041E+03  0.10269655247E+04  0.38409708048E+03 0.  0.
         13    1    3    3    0    0  0.15852601710E+03  0.76734768201E+02 -0.52315591343E+03  0.55200618882E+03  0.00000000000E+00 0.  1.
          1    1    3    3  501    0 -0.18738577754E+03 -0.81107817622E+02 -0.42882917698E+03  0.47495933587E+03  0.00000000000E+00 0.  1.
         21    1    1    2  502  501  0.28859760443E+02  0.43730494216E+01  0.97136503431E+01  0.30763035238E+02  0.00000000000E+00 0.  1.
<mgrwt>
<rscale>  1 0.30000000E+03</rscale>
<asrwt>0</asrwt>
<pdfrwt beam="1">  1        1 0.20992248E+00 0.30000000E+03</pdfrwt>
<pdfrwt beam="2">0</pdfrwt>
<totfact> 0.91930454E+00</totfact>
</mgrwt>
</event>
<event>
 6    1  0.1940992E-004  0.3000000E+03  0.7818608E-02  0.1093470E+00
          1   -1    0    0  502    0  0.00000000000E+00  0.00000000000E+00  0.36766112211E+02  0.36766112211E+02  0.00000000000E+00 0.  1.
         13   -1    0    0    0    0 -0.00000000000E+00 -0.00000000000E+00 -0.10000000000E+04  0.10000000000E+04  0.00000000000E+00 0.  1.
    9000005    2    1    2  501    0 -0.40768541423E+02  0.28187912588E+01 -0.93581469035E+03  0.98755400047E+03  0.31279985551E+03 0.  0.
         13    1    3    3    0    0 -0.16233055761E+03 -0.65023303723E+02 -0.47477210749E+03  0.50595236338E+03  0.00000000000E+00 0.  1.
          1    1    3    3  501    0  0.12156201619E+03  0.67842094982E+02 -0.46104258286E+03  0.48160163709E+03  0.00000000000E+00 0.  1.
         21    1    1    2  502  501  0.40768541423E+02 -0.28187912588E+01 -0.27419197436E+02  0.49212111741E+02  0.00000000000E+00 0.  1.
<mgrwt>
<rscale>  1 0.30000000E+03</rscale>
<asrwt>0</asrwt>
<pdfrwt beam="1">  1        1 0.13369524E+00 0.30000000E+03</pdfrwt>
<pdfrwt beam="2">0</pdfrwt>
<totfact> 0.21851131E+01</totfact>
</mgrwt>
</event>
<event>
 6    1  0.1940992E-004  0.3000000E+03  0.7818608E-02  0.1093470E+00
          1   -1    0    0  502    0  0.00000000000E+00  0.00000000000E+00  0.41609271319E+02  0.41609271319E+02  0.00000000000E+00 0.  1.
         13   -1    0    0    0    0 -0.00000000000E+00 -0.00000000000E+00 -0.10000000000E+04  0.10000000000E+04  0.00000000000E+00 0.  1.
    9000005    2    1    2  501    0  0.39459810881E+01 -0.94531170065E+01 -0.97144108955E+03  0.10250187889E+04  0.32689569432E+03 0.  0.
         13    1    3    3    0    0 -0.16014342711E+03 -0.16549517117E+02 -0.53487287955E+03  0.55857747989E+03  0.00000000000E+00 0.  1.
          3    1    3    3  501    0  0.16408940820E+03  0.70964001109E+01 -0.43656821000E+03  0.46644130902E+03  0.00000000000E+00 0.  1.
         21    1    1    2  502  501 -0.39459810881E+01  0.94531170065E+01  0.13050360867E+02  0.16590482411E+02  0.00000000000E+00 0.  1.
<mgrwt>
<rscale>  1 0.30000000E+03</rscale>
<asrwt>0</asrwt>
<pdfrwt beam="1">  1        1 0.15130676E+00 0.30000000E+03</pdfrwt>
<pdfrwt beam="2">0</pdfrwt>
<totfact> 0.17692670E+01</totfact>
</mgrwt>
</event>
<event>
 6    1  0.1940992E-004  0.3000000E+03  0.7818608E-02  0.1093470E+00
          1   -1    0    0  502    0  0.00000000000E+00  0.00000000000E+00  0.63116010916E+02  0.63116010916E+02  0.00000000000E+00 0.  1.
         13   -1    0    0    0    0 -0.00000000000E+00 -0.00000000000E+00 -0.10000000000E+04  0.10000000000E+04  0.00000000000E+00 0.  1.
    9000005    2    1    2  501    0 -0.12470169451E+02 -0.33191977417E+01 -0.97313529601E+03  0.10246364130E+04  0.32050109575E+03 0.  0.
         13    1    3    3    0    0 -0.55412988490E+01 -0.16188280136E+03 -0.50208261815E+03  0.52756393245E+03  0.00000000000E+00 0.  1.
          3    1    3    3  501    0 -0.69288706017E+01  0.15856360362E+03 -0.47105267785E+03  0.49707248058E+03  0.00000000000E+00 0.  1.
         21    1    1    2  502  501  0.12470169451E+02  0.33191977417E+01  0.36251306922E+02  0.38479597884E+02  0.00000000000E+00 0.  1.
<mgrwt>
<rscale>  1 0.30000000E+03</rscale>
<asrwt>0</asrwt>
<pdfrwt beam="1">  1        1 0.22951325E+00 0.30000000E+03</pdfrwt>
<pdfrwt beam="2">0</pdfrwt>
<totfact> 0.74393520E+00</totfact>
</mgrwt>
</event>
<event>
 6    1  0.1940992E-004  0.3000000E+03  0.7818608E-02  0.1093470E+00
          1   -1    0    0  502    0  0.00000000000E+00  0.00000000000E+00  0.47781278039E+02  0.47781278039E+02  0.00000000000E+00 0.  1.
         13   -1    0    0    0    0 -0.00000000000E+00 -0.00000000000E+00 -0.10000000000E+04  0.10000000000E+04  0.00000000000E+00 0.  1.
    9000005    2    1    2  501    0  0.36270316658E+02 -0.42920644071E+01 -0.95881781356E+03  0.10106665142E+04  0.31746062051E+03 0.  0.
         13    1    3    3    0    0  0.32484466617E+02 -0.47462199898E+02 -0.96515731324E+03  0.96686945359E+03  0.00000000000E+00 0.  1.
          3    1    3    3  501    0  0.37858500413E+01  0.43170135491E+02  0.63394996791E+01  0.43797060575E+02  0.00000000000E+00 0.  1.
         21    1    1    2  502  501 -0.36270316658E+02  0.42920644071E+01  0.65990915986E+01  0.37114763872E+02  0.00000000000E+00 0.  1.
<mgrwt>
<rscale>  1 0.30000000E+03</rscale>
<asrwt>0</asrwt>
<pdfrwt beam="1">  1        1 0.17375047E+00 0.30000000E+03</pdfrwt>
<pdfrwt beam="2">0</pdfrwt>
<totfact> 0.13698156E+01</totfact>
</mgrwt>
</event>
<event>
 6    1  0.1940992E-004  0.3000000E+03  0.7818608E-02  0.1093470E+00
          1   -1    0    0  502    0  0.00000000000E+00  0.00000000000E+00  0.34712187067E+02  0.34712187067E+02  0.00000000000E+00 0.  1.
         13   -1    0    0    0    0 -0.00000000000E+00 -0.00000000000E+00 -0.10000000000E+04  0.10000000000E+04  0.00000000000E+00 0.  1.
    9000005    2    1    2  501    0 -0.10953971753E+01  0.13364133488E+02 -0.96790378081E+03  0.10210504432E+04  0.32484839323E+03 0.  0.
         13    1    3    3    0    0  0.79302422371E+02 -0.13435614664E+03 -0.50443213549E+03  0.52800779127E+03  0.00000000000E+00 0.  1.
          1    1    3    3  501    0 -0.80397819547E+02  0.14772028013E+03 -0.46347164533E+03  0.49304265188E+03  0.00000000000E+00 0.  1.
         21    1    1    2  502  501  0.10953971753E+01 -0.13364133488E+02  0.26159678809E+01  0.13661743916E+02  0.00000000000E+00 0.  1.
<mgrwt>
<rscale>  1 0.30000000E+03</rscale>
<asrwt>0</asrwt>
<pdfrwt beam="1">  1        1 0.12622640E+00 0.30000000E+03</pdfrwt>
<pdfrwt beam="2">0</pdfrwt>
<totfact> 0.23996155E+01</totfact>
</mgrwt>
</event>
<event>
 6    1  0.2464499E-004  0.3000000E+03  0.7818608E-02  0.1093470E+00
          1   -1    0    0  502    0  0.00000000000E+00  0.00000000000E+00  0.67867793336E+02  0.67867793336E+02  0.00000000000E+00 0.  1.
         13   -1    0    0    0    0 -0.00000000000E+00 -0.00000000000E+00 -0.10000000000E+04  0.10000000000E+04  0.00000000000E+00 0.  1.
    9000005    2    1    2  501    0 -0.51775008895E+01  0.11210617644E+02 -0.93986600568E+03  0.10532974086E+04  0.47532603329E+03 0.  0.
         13    1    3    3    0    0  0.21328973801E+03 -0.93780148841E+02 -0.47167559432E+03  0.52608468419E+03  0.00000000000E+00 0.  1.
          3    1    3    3  501    0 -0.21846723890E+03  0.10499076648E+03 -0.46819041135E+03  0.52721272443E+03  0.00000000000E+00 0.  1.
         21    1    1    2  502  501  0.51775008895E+01 -0.11210617644E+02  0.77337990156E+01  0.14570384711E+02  0.00000000000E+00 0.  1.
<mgrwt>
<rscale>  1 0.30000000E+03</rscale>
<asrwt>0</asrwt>
<pdfrwt beam="1">  1        1 0.24679250E+00 0.30000000E+03</pdfrwt>
<pdfrwt beam="2">0</pdfrwt>
<totfact> 0.61749744E+00</totfact>
</mgrwt>
</event>
<event>
 6    1  0.1940992E-004  0.3000000E+03  0.7818608E-02  0.1093470E+00
          3   -1    0    0  502    0  0.00000000000E+00  0.00000000000E+00  0.36959693410E+02  0.36959693410E+02  0.00000000000E+00 0.  1.
         13   -1    0    0    0    0 -0.00000000000E+00 -0.00000000000E+00 -0.10000000000E+04  0.10000000000E+04  0.00000000000E+00 0.  1.
    9000005    2    1    2  501    0  0.82981336925E+01 -0.56946886008E+01 -0.95890995641E+03  0.10260808932E+04  0.36501014564E+03 0.  0.
         13    1    3    3    0    0 -0.16365502701E+02  0.12967758018E+03 -0.12487122052E+03  0.18076760272E+03  0.00000000000E+00 0.  1.
          3    1    3    3  501    0  0.24663636394E+02 -0.13537226878E+03 -0.83403873589E+03  0.84531329049E+03  0.00000000000E+00 0.  1.
         21    1    1    2  502  501 -0.82981336925E+01  0.56946886008E+01 -0.41303501798E+01  0.10878800193E+02  0.00000000000E+00 0.  1.
<mgrwt>
<rscale>  1 0.30000000E+03</rscale>
<asrwt>0</asrwt>
<pdfrwt beam="1">  1        3 0.13439917E+00 0.30000000E+03</pdfrwt>
<pdfrwt beam="2">0</pdfrwt>
<totfact> 0.15693345E+00</totfact>
</mgrwt>
</event>
<event>
 6    1  0.1940992E-004  0.3000000E+03  0.7818608E-02  0.1093470E+00
          1   -1    0    0  502    0  0.00000000000E+00  0.00000000000E+00  0.32903062188E+02  0.32903062188E+02  0.00000000000E+00 0.  1.
         13   -1    0    0    0    0 -0.00000000000E+00 -0.00000000000E+00 -0.10000000000E+04  0.10000000000E+04  0.00000000000E+00 0.  1.
    9000005    2    1    2  501    0  0.32287339411E+02 -0.10079937742E+02 -0.91416972100E+03  0.97009090007E+03  0.32284051506E+03 0.  0.
         13    1    3    3    0    0  0.14609837815E+03 -0.10942176260E+01 -0.20468403644E+03  0.25147860383E+03  0.00000000000E+00 0.  1.
          1    1    3    3  501    0 -0.11381103874E+03 -0.89857201164E+01 -0.70948568456E+03  0.71861229624E+03  0.00000000000E+00 0.  1.
         21    1    1    2  502  501 -0.32287339411E+02  0.10079937742E+02 -0.52927216809E+02  0.62812162121E+02  0.00000000000E+00 0. -1.
<mgrwt>
<rscale>  1 0.30000000E+03</rscale>
<asrwt>0</asrwt>
<pdfrwt beam="1">  1        1 0.11964775E+00 0.30000000E+03</pdfrwt>
<pdfrwt beam="2">0</pdfrwt>
<totfact> 0.26115607E+01</totfact>
</mgrwt>
</event>
<event>
 6    1  0.1940992E-004  0.3000000E+03  0.7818608E-02  0.1093470E+00
          1   -1    0    0  502    0  0.00000000000E+00  0.00000000000E+00  0.32012271164E+02  0.32012271164E+02  0.00000000000E+00 0.  1.
         13   -1    0    0    0    0 -0.00000000000E+00 -0.00000000000E+00 -0.10000000000E+04  0.10000000000E+04  0.00000000000E+00 0.  1.
    9000005    2    1    2  501    0  0.12158990729E+01 -0.94945319141E+01 -0.96001242314E+03  0.10195531360E+04  0.34318088540E+03 0.  0.
         13    1    3    3    0    0  0.13154995977E+03 -0.10142870725E+03 -0.65035117787E+03  0.67123008658E+03  0.00000000000E+00 0.  1.
          3    1    3    3  501    0 -0.13033406070E+03  0.91934175332E+02 -0.30966124526E+03  0.34832304947E+03  0.00000000000E+00 0.  1.
         21    1    1    2  502  501 -0.12158990729E+01  0.94945319141E+01 -0.79753057008E+01  0.12459135116E+02  0.00000000000E+00 0. -1.
<mgrwt>
<rscale>  1 0.30000000E+03</rscale>
<asrwt>0</asrwt>
<pdfrwt beam="1">  1        1 0.11640850E+00 0.30000000E+03</pdfrwt>
<pdfrwt beam="2">0</pdfrwt>
<totfact> 0.27251120E+01</totfact>
</mgrwt>
</event>
<event>
 6    1  0.1940992E-004  0.3000000E+03  0.7818608E-02  0.1093470E+00
          1   -1    0    0  502    0  0.00000000000E+00  0.00000000000E+00  0.29529567943E+02  0.29529567943E+02  0.00000000000E+00 0.  1.
         13   -1    0    0    0    0 -0.00000000000E+00 -0.00000000000E+00 -0.10000000000E+04  0.10000000000E+04  0.00000000000E+00 0.  1.
    9000005    2    1    2  501    0 -0.12310820827E+02 -0.23640188152E+01 -0.97458019401E+03  0.10163373340E+04  0.28805880810E+03 0.  0.
         13    1    3    3    0    0 -0.59666034552E+02  0.10524053217E+03 -0.77749953958E+03  0.78685522133E+03  0.00000000000E+00 0.  1.
          1    1    3    3  501    0  0.47355213725E+02 -0.10760455099E+03 -0.19708065443E+03  0.22948211262E+03  0.00000000000E+00 0.  1.
         21    1    1    2  502  501  0.12310820827E+02  0.23640188152E+01  0.41097619561E+01  0.13192233993E+02  0.00000000000E+00 0.  1.
<mgrwt>
<rscale>  1 0.30000000E+03</rscale>
<asrwt>0</asrwt>
<pdfrwt beam="1">  1        1 0.10738047E+00 0.30000000E+03</pdfrwt>
<pdfrwt beam="2">0</pdfrwt>
<totfact> 0.30805704E+01</totfact>
</mgrwt>
</event>
<event>
 6    1  0.1940992E-004  0.3000000E+03  0.7818608E-02  0.1093470E+00
          3   -1    0    0  502    0  0.00000000000E+00  0.00000000000E+00  0.36653789841E+02  0.36653789841E+02  0.00000000000E+00 0.  1.
         13   -1    0    0    0    0 -0.00000000000E+00 -0.00000000000E+00 -0.10000000000E+04  0.10000000000E+04  0.00000000000E+00 0.  1.
    9000005    2    1    2  501    0 -0.12173402034E+02 -0.25638058991E+02 -0.94756908216E+03  0.10041819628E+04  0.33119291522E+03 0.  0.
         13    1    3    3    0    0  0.11558488488E+02 -0.14761654948E+03 -0.21442264860E+03  0.26057881066E+03  0.00000000000E+00 0.  1.
          1    1    3    3  501    0 -0.23731890522E+02  0.12197849049E+03 -0.73314643356E+03  0.74360315210E+03  0.00000000000E+00 0.  1.
         21    1    1    2  502  501  0.12173402034E+02  0.25638058991E+02 -0.15777128000E+02  0.32471827079E+02  0.00000000000E+00 0.  1.
<mgrwt>
<rscale>  1 0.30000000E+03</rscale>
<asrwt>0</asrwt>
<pdfrwt beam="1">  1        3 0.13328679E+00 0.30000000E+03</pdfrwt>
<pdfrwt beam="2">0</pdfrwt>
<totfact> 0.16181513E+00</totfact>
</mgrwt>
</event>
<event>
 6    1  0.1940992E-004  0.3000000E+03  0.7818608E-02  0.1093470E+00
          1   -1    0    0  502    0  0.00000000000E+00  0.00000000000E+00  0.33094436385E+02  0.33094436385E+02  0.00000000000E+00 0.  1.
         13   -1    0    0    0    0 -0.00000000000E+00 -0.00000000000E+00 -0.10000000000E+04  0.10000000000E+04  0.00000000000E+00 0.  1.
    9000005    2    1    2  501    0 -0.98552730896E+01  0.75775627106E+00 -0.96436359423E+03  0.10228884474E+04  0.34088991391E+03 0.  0.
         13    1    3    3    0    0  0.47342321938E+02 -0.15569740431E+03 -0.34404065530E+03  0.38058763728E+03  0.00000000000E+00 0.  1.
          1    1    3    3  501    0 -0.57197595028E+02  0.15645516058E+03 -0.62032293893E+03  0.64230081014E+03  0.00000000000E+00 0.  1.
         21    1    1    2  502  501  0.98552730896E+01 -0.75775627106E+00 -0.25419693882E+01  0.10205988958E+02  0.00000000000E+00 0.  1.
<mgrwt>
<rscale>  1 0.30000000E+03</rscale>
<asrwt>0</asrwt>
<pdfrwt beam="1">  1        1 0.12034366E+00 0.30000000E+03</pdfrwt>
<pdfrwt beam="2">0</pdfrwt>
<totfact> 0.25880058E+01</totfact>
</mgrwt>
</event>
<event>
 6    1  0.1940992E-004  0.3000000E+03  0.7818608E-02  0.1093470E+00
          1   -1    0    0  502    0  0.00000000000E+00  0.00000000000E+00  0.18865977402E+02  0.18865977402E+02  0.00000000000E+00 0.  1.
         13   -1    0    0    0    0 -0.00000000000E+00 -0.00000000000E+00 -0.10000000000E+04  0.10000000000E+04  0.00000000000E+00 0.  1.
    9000005    2    1    2  501    0 -0.24317145237E+02  0.18500256888E+01 -0.92887087686E+03  0.96119291133E+03  0.24595926648E+03 0.  0.
         13    1    3    3    0    0 -0.24972512269E+02  0.10258557105E+03 -0.20744671944E+03  0.23276934327E+03  0.00000000000E+00 0.  1.
          3    1    3    3  501    0  0.65536703164E+00 -0.10073554536E+03 -0.72142415742E+03  0.72842356807E+03  0.00000000000E+00 0.  1.
         21    1    1    2  502  501  0.24317145237E+02 -0.18500256888E+01 -0.52263145735E+02  0.57673066067E+02  0.00000000000E+00 0.  1.
<mgrwt>
<rscale>  1 0.30000000E+03</rscale>
<asrwt>0</asrwt>
<pdfrwt beam="1">  1        1 0.68603699E-01 0.30000000E+03</pdfrwt>
<pdfrwt beam="2">0</pdfrwt>
<totfact> 0.57945304E+01</totfact>
</mgrwt>
</event>
<event>
 6    1  0.1940992E-004  0.3000000E+03  0.7818608E-02  0.1093470E+00
          1   -1    0    0  502    0  0.00000000000E+00  0.00000000000E+00  0.51794266567E+02  0.51794266567E+02  0.00000000000E+00 0.  1.
         13   -1    0    0    0    0 -0.00000000000E+00 -0.00000000000E+00 -0.10000000000E+04  0.10000000000E+04  0.00000000000E+00 0.  1.
    9000005    2    1    2  501    0 -0.57453367459E+02 -0.77148687674E+00 -0.92848169654E+03  0.99104459780E+03  0.34174500639E+03 0.  0.
         13    1    3    3    0    0 -0.12562695135E+03 -0.13823736446E+03 -0.60177212166E+03  0.63009633093E+03  0.00000000000E+00 0.  1.
          1    1    3    3  501    0  0.68173583887E+02  0.13746587759E+03 -0.32670957487E+03  0.36094826687E+03  0.00000000000E+00 0.  1.
         21    1    1    2  502  501  0.57453367459E+02  0.77148687674E+00 -0.19724036897E+02  0.60749668771E+02  0.00000000000E+00 0.  1.
<mgrwt>
<rscale>  1 0.30000000E+03</rscale>
<asrwt>0</asrwt>
<pdfrwt beam="1">  1        1 0.18834318E+00 0.30000000E+03</pdfrwt>
<pdfrwt beam="2">0</pdfrwt>
<totfact> 0.11645372E+01</totfact>
</mgrwt>
</event>
<event>
 6    1  0.1940992E-004  0.3000000E+03  0.7818608E-02  0.1093470E+00
          1   -1    0    0  502    0  0.00000000000E+00  0.00000000000E+00  0.28459904429E+02  0.28459904429E+02  0.00000000000E+00 0.  1.
         13   -1    0    0    0    0 -0.00000000000E+00 -0.00000000000E+00 -0.10000000000E+04  0.10000000000E+04  0.00000000000E+00 0.  1.
    9000005    2    1    2  501    0  0.43844421975E+01  0.75484897704E+01 -0.94893643677E+03  0.10042291714E+04  0.32851128544E+03 0.  0.
         13    1    3    3    0    0  0.72946475282E+02  0.96863418480E+02 -0.83601778671E+03  0.84476591420E+03  0.00000000000E+00 0.  1.
          1    1    3    3  501    0 -0.68562033084E+02 -0.89314928709E+02 -0.11291865006E+03  0.15946325722E+03  0.00000000000E+00 0.  1.
         21    1    1    2  502  501 -0.43844421975E+01 -0.75484897704E+01 -0.22603658799E+02  0.24230733012E+02  0.00000000000E+00 0.  1.
<mgrwt>
<rscale>  1 0.30000000E+03</rscale>
<asrwt>0</asrwt>
<pdfrwt beam="1">  1        1 0.10349078E+00 0.30000000E+03</pdfrwt>
<pdfrwt beam="2">0</pdfrwt>
<totfact> 0.32543378E+01</totfact>
</mgrwt>
</event>
<event>
 6    1  0.1940992E-004  0.3000000E+03  0.7818608E-02  0.1093470E+00
          1   -1    0    0  502    0  0.00000000000E+00  0.00000000000E+00  0.30291288092E+02  0.30291288092E+02  0.00000000000E+00 0.  1.
         13   -1    0    0    0    0 -0.00000000000E+00 -0.00000000000E+00 -0.10000000000E+04  0.10000000000E+04  0.00000000000E+00 0.  1.
    9000005    2    1    2  501    0  0.84636320524E+01  0.21860624368E+02 -0.93641434664E+03  0.98957231556E+03  0.31911129590E+03 0.  0.
         13    1    3    3    0    0 -0.12947312860E+03 -0.61696365220E+02 -0.29250278876E+03  0.32577233453E+03  0.00000000000E+00 0.  1.
          1    1    3    3  501    0  0.13793676066E+03  0.83556989589E+02 -0.64391155788E+03  0.66379998104E+03  0.00000000000E+00 0.  1.
         21    1    1    2  502  501 -0.84636320524E+01 -0.21860624368E+02 -0.33294365265E+02  0.40718972528E+02  0.00000000000E+00 0. -1.
<mgrwt>
<rscale>  1 0.30000000E+03</rscale>
<asrwt>0</asrwt>
<pdfrwt beam="1">  1        1 0.11015037E+00 0.30000000E+03</pdfrwt>
<pdfrwt beam="2">0</pdfrwt>
<totfact> 0.29648419E+01</totfact>
</mgrwt>
</event>
<event>
 6    1  0.1940992E-004  0.3000000E+03  0.7818608E-02  0.1093470E+00
          1   -1    0    0  502    0  0.00000000000E+00  0.00000000000E+00  0.33377600697E+02  0.33377600697E+02  0.00000000000E+00 0.  1.
         13   -1    0    0    0    0 -0.00000000000E+00 -0.00000000000E+00 -0.10000000000E+04  0.10000000000E+04  0.00000000000E+00 0.  1.
    9000005    2    1    2  501    0  0.75775358383E-01 -0.14474105144E+02 -0.96529473276E+03  0.10188425341E+04  0.32563274221E+03 0.  0.
         13    1    3    3    0    0  0.50309077192E+02  0.56221161183E+02 -0.32703192499E+02  0.82227252248E+02  0.00000000000E+00 0.  1.
          1    1    3    3  501    0 -0.50233301834E+02 -0.70695266327E+02 -0.93259154026E+03  0.93661528188E+03  0.00000000000E+00 0.  1.
         21    1    1    2  502  501 -0.75775358383E-01  0.14474105144E+02 -0.13276665451E+01  0.14535066566E+02  0.00000000000E+00 0.  1.
<mgrwt>
<rscale>  1 0.30000000E+03</rscale>
<asrwt>0</asrwt>
<pdfrwt beam="1">  1        1 0.12137335E+00 0.30000000E+03</pdfrwt>
<pdfrwt beam="2">0</pdfrwt>
<totfact> 0.25536704E+01</totfact>
</mgrwt>
</event>
<event>
 6    1  0.1940992E-004  0.3000000E+03  0.7818608E-02  0.1093470E+00
          1   -1    0    0  502    0  0.00000000000E+00  0.00000000000E+00  0.83780984290E+02  0.83780984290E+02  0.00000000000E+00 0.  1.
         13   -1    0    0    0    0 -0.00000000000E+00 -0.00000000000E+00 -0.10000000000E+04  0.10000000000E+04  0.00000000000E+00 0.  1.
    9000005    2    1    2  501    0 -0.38662410039E+02  0.25156533329E+02 -0.95764722647E+03  0.10217815507E+04  0.35330113766E+03 0.  0.
         13    1    3    3    0    0  0.15729661173E+03  0.54235320534E+01 -0.37277820175E+03  0.40464209674E+03  0.00000000000E+00 0.  1.
          1    1    3    3  501    0 -0.19595902177E+03  0.19733001276E+02 -0.58486902472E+03  0.61713945395E+03  0.00000000000E+00 0.  1.
         21    1    1    2  502  501  0.38662410039E+02 -0.25156533329E+02  0.41428210756E+02  0.61999433591E+02  0.00000000000E+00 0.  1.
<mgrwt>
<rscale>  1 0.30000000E+03</rscale>
<asrwt>0</asrwt>
<pdfrwt beam="1">  1        1 0.30465877E+00 0.30000000E+03</pdfrwt>
<pdfrwt beam="2">0</pdfrwt>
<totfact> 0.33016045E+00</totfact>
</mgrwt>
</event>
<event>
 6    1  0.1940992E-004  0.3000000E+03  0.7818608E-02  0.1093470E+00
          1   -1    0    0  502    0  0.00000000000E+00  0.00000000000E+00  0.30289358089E+02  0.30289358089E+02  0.00000000000E+00 0.  1.
         13   -1    0    0    0    0 -0.00000000000E+00 -0.00000000000E+00 -0.10000000000E+04  0.10000000000E+04  0.00000000000E+00 0.  1.
    9000005    2    1    2  501    0 -0.22607969217E+01 -0.21536221134E+02 -0.90270760398E+03  0.95987396833E+03  0.32558884619E+03 0.  0.
         13    1    3    3    0    0  0.12608145590E+03 -0.44849878441E+02 -0.17361034820E+03  0.21919990447E+03  0.00000000000E+00 0.  1.
          1    1    3    3  501    0 -0.12834225283E+03  0.23313657306E+02 -0.72909725578E+03  0.74067406386E+03  0.00000000000E+00 0.  1.
         21    1    1    2  502  501  0.22607969217E+01  0.21536221134E+02 -0.67003037927E+02  0.70415389759E+02  0.00000000000E+00 0.  1.
<mgrwt>
<rscale>  1 0.30000000E+03</rscale>
<asrwt>0</asrwt>
<pdfrwt beam="1">  1        1 0.11014335E+00 0.30000000E+03</pdfrwt>
<pdfrwt beam="2">0</pdfrwt>
<totfact> 0.29651272E+01</totfact>
</mgrwt>
</event>
<event>
 6    1  0.1940992E-004  0.3000000E+03  0.7818608E-02  0.1093470E+00
          1   -1    0    0  502    0  0.00000000000E+00  0.00000000000E+00  0.51609992710E+02  0.51609992710E+02  0.00000000000E+00 0.  1.
         13   -1    0    0    0    0 -0.00000000000E+00 -0.00000000000E+00 -0.10000000000E+04  0.10000000000E+04  0.00000000000E+00 0.  1.
    9000005    2    1    2  501    0 -0.13929767337E+02 -0.13413536857E+02 -0.96913039047E+03  0.10232528969E+04  0.32780911496E+03 0.  0.
         13    1    3    3    0    0 -0.33659739971E+02  0.62916054473E+02 -0.24656160513E+02  0.75493935231E+02  0.00000000000E+00 0.  1.
          3    1    3    3  501    0  0.19729972635E+02 -0.76329591330E+02 -0.94447422996E+03  0.94775896165E+03  0.00000000000E+00 0.  1.
         21    1    1    2  502  501  0.13929767337E+02  0.13413536857E+02  0.20740383184E+02  0.28357095826E+02  0.00000000000E+00 0.  1.
<mgrwt>
<rscale>  1 0.30000000E+03</rscale>
<asrwt>0</asrwt>
<pdfrwt beam="1">  1        1 0.18767310E+00 0.30000000E+03</pdfrwt>
<pdfrwt beam="2">0</pdfrwt>
<totfact> 0.11732026E+01</totfact>
</mgrwt>
</event>
<event>
 6    1  0.1940992E-004  0.3000000E+03  0.7818608E-02  0.1093470E+00
          1   -1    0    0  502    0  0.00000000000E+00  0.00000000000E+00  0.70907146596E+02  0.70907146596E+02  0.00000000000E+00 0.  1.
         13   -1    0    0    0    0 -0.00000000000E+00 -0.00000000000E+00 -0.10000000000E+04  0.10000000000E+04  0.00000000000E+00 0.  1.
    9000005    2    1    2  501    0  0.52930114739E+01 -0.14090842077E+02 -0.96693160783E+03  0.10301844363E+04  0.35510093028E+03 0.  0.
         13    1    3    3    0    0  0.54878890159E+02  0.15756030376E+03 -0.58852341505E+03  0.61171623484E+03  0.00000000000E+00 0.  1.
          1    1    3    3  501    0 -0.49585878685E+02 -0.17165114584E+03 -0.37840819278E+03  0.41846820142E+03  0.00000000000E+00 0.  1.
         21    1    1    2  502  501 -0.52930114739E+01  0.14090842077E+02  0.37838754426E+02  0.40722710340E+02  0.00000000000E+00 0.  1.
<mgrwt>
<rscale>  1 0.30000000E+03</rscale>
<asrwt>0</asrwt>
<pdfrwt beam="1">  1        1 0.25784471E+00 0.30000000E+03</pdfrwt>
<pdfrwt beam="2">0</pdfrwt>
<totfact> 0.54843524E+00</totfact>
</mgrwt>
</event>
<event>
 6    1  0.1940992E-004  0.3000000E+03  0.7818608E-02  0.1093470E+00
          1   -1    0    0  502    0  0.00000000000E+00  0.00000000000E+00  0.30255801321E+02  0.30255801321E+02  0.00000000000E+00 0.  1.
         13   -1    0    0    0    0 -0.00000000000E+00 -0.00000000000E+00 -0.10000000000E+04  0.10000000000E+04  0.00000000000E+00 0.  1.
    9000005    2    1    2  501    0  0.69089688103E+01  0.91049052438E+01 -0.96469911442E+03  0.10177623621E+04  0.32413764221E+03 0.  0.
         13    1    3    3    0    0  0.92340647183E+02  0.13996523293E+03 -0.52386862991E+03  0.55005036401E+03  0.00000000000E+00 0.  1.
          1    1    3    3  501    0 -0.85431678373E+02 -0.13086032769E+03 -0.44083048452E+03  0.46771199804E+03  0.00000000000E+00 0.  1.
         21    1    1    2  502  501 -0.69089688103E+01 -0.91049052438E+01 -0.50450842542E+01  0.12493439264E+02  0.00000000000E+00 0.  1.
<mgrwt>
<rscale>  1 0.30000000E+03</rscale>
<asrwt>0</asrwt>
<pdfrwt beam="1">  1        1 0.11002133E+00 0.30000000E+03</pdfrwt>
<pdfrwt beam="2">0</pdfrwt>
<totfact> 0.29700947E+01</totfact>
</mgrwt>
</event>
<event>
 6    1  0.1940992E-004  0.3000000E+03  0.7818608E-02  0.1093470E+00
          1   -1    0    0  502    0  0.00000000000E+00  0.00000000000E+00  0.29411219708E+02  0.29411219708E+02  0.00000000000E+00 0.  1.
         13   -1    0    0    0    0 -0.00000000000E+00 -0.00000000000E+00 -0.10000000000E+04  0.10000000000E+04  0.00000000000E+00 0.  1.
    9000005    2    1    2  501    0 -0.63400425274E+01 -0.10604693817E+02 -0.94894472529E+03  0.10044889247E+04  0.32916447647E+03 0.  0.
         13    1    3    3    0    0  0.59042588136E+02  0.12180777238E+03 -0.20249843985E+03  0.24357499618E+03  0.00000000000E+00 0.  1.
          1    1    3    3  501    0 -0.65382630664E+02 -0.13241246620E+03 -0.74644628544E+03  0.76091392854E+03  0.00000000000E+00 0.  1.
         21    1    1    2  502  501  0.63400425274E+01  0.10604693817E+02 -0.21644055004E+02  0.24922294983E+02  0.00000000000E+00 0. -1.
<mgrwt>
<rscale>  1 0.30000000E+03</rscale>
<asrwt>0</asrwt>
<pdfrwt beam="1">  1        1 0.10695012E+00 0.30000000E+03</pdfrwt>
<pdfrwt beam="2">0</pdfrwt>
<totfact> 0.30991288E+01</totfact>
</mgrwt>
</event>
<event>
 6    1  0.1940992E-004  0.3000000E+03  0.7818608E-02  0.1093470E+00
          1   -1    0    0  502    0  0.00000000000E+00  0.00000000000E+00  0.42711437409E+02  0.42711437409E+02  0.00000000000E+00 0.  1.
         13   -1    0    0    0    0 -0.00000000000E+00 -0.00000000000E+00 -0.10000000000E+04  0.10000000000E+04  0.00000000000E+00 0.  1.
    9000005    2    1    2  501    0 -0.29974725837E+02 -0.16916054290E+01 -0.95754576948E+03  0.10126879154E+04  0.32824010669E+03 0.  0.
         13    1    3    3    0    0 -0.35988945416E+02 -0.15452265113E+03 -0.65163771618E+03  0.67067441210E+03  0.00000000000E+00 0.  1.
          1    1    3    3  501    0  0.60142195789E+01  0.15283104570E+03 -0.30590805331E+03  0.34201350331E+03  0.00000000000E+00 0.  1.
         21    1    1    2  502  501  0.29974725837E+02  0.16916054290E+01  0.25720689210E+00  0.30023522001E+02  0.00000000000E+00 0. -1.
<mgrwt>
<rscale>  1 0.30000000E+03</rscale>
<asrwt>0</asrwt>
<pdfrwt beam="1">  1        1 0.15531465E+00 0.30000000E+03</pdfrwt>
<pdfrwt beam="2">0</pdfrwt>
<totfact> 0.16888427E+01</totfact>
</mgrwt>
</event>
<event>
 6    1  0.1940992E-004  0.3000000E+03  0.7818608E-02  0.1093470E+00
          3   -1    0    0  502    0  0.00000000000E+00  0.00000000000E+00  0.28261913349E+02  0.28261913349E+02  0.00000000000E+00 0.  1.
         13   -1    0    0    0    0 -0.00000000000E+00 -0.00000000000E+00 -0.10000000000E+04  0.10000000000E+04  0.00000000000E+00 0.  1.
    9000005    2    1    2  501    0  0.72654513389E+01 -0.10952985893E+02 -0.94699398762E+03  0.10002436136E+04  0.32174045333E+03 0.  0.
         13    1    3    3    0    0 -0.46960007722E+02 -0.10408319022E+03 -0.11773836559E+03  0.16401486379E+03  0.00000000000E+00 0.  1.
          3    1    3    3  501    0  0.54225459061E+02  0.93130204330E+02 -0.82925562203E+03  0.83622874982E+03  0.00000000000E+00 0.  1.
         21    1    1    2  502  501 -0.72654513389E+01  0.10952985893E+02 -0.24744099031E+02  0.28018299734E+02  0.00000000000E+00 0. -1.
<mgrwt>
<rscale>  1 0.30000000E+03</rscale>
<asrwt>0</asrwt>
<pdfrwt beam="1">  1        3 0.10277081E+00 0.30000000E+03</pdfrwt>
<pdfrwt beam="2">0</pdfrwt>
<totfact> 0.36425189E+00</totfact>
</mgrwt>
</event>
<event>
 6    1  0.1940992E-004  0.3000000E+03  0.7818608E-02  0.1093470E+00
          1   -1    0    0  502    0  0.00000000000E+00  0.00000000000E+00  0.32843105873E+02  0.32843105873E+02  0.00000000000E+00 0.  1.
         13   -1    0    0    0    0 -0.00000000000E+00 -0.00000000000E+00 -0.10000000000E+04  0.10000000000E+04  0.00000000000E+00 0.  1.
    9000005    2    1    2  501    0  0.14124903660E+02  0.75115951595E+01 -0.96406027163E+03  0.10165481362E+04  0.32202790088E+03 0.  0.
         13    1    3    3    0    0  0.13319187673E+03 -0.34135211101E+02 -0.78833832254E+03  0.80023908893E+03  0.00000000000E+00 0.  1.
          1    1    3    3  501    0 -0.11906697307E+03  0.41646806260E+02 -0.17572194909E+03  0.21630904728E+03  0.00000000000E+00 0.  1.
         21    1    1    2  502  501 -0.14124903660E+02 -0.75115951595E+01 -0.30966224975E+01  0.16294969657E+02  0.00000000000E+00 0.  1.
<mgrwt>
<rscale>  1 0.30000000E+03</rscale>
<asrwt>0</asrwt>
<pdfrwt beam="1">  1        1 0.11942973E+00 0.30000000E+03</pdfrwt>
<pdfrwt beam="2">0</pdfrwt>
<totfact> 0.26189995E+01</totfact>
</mgrwt>
</event>
<event>
 6    1  0.1940992E-004  0.3000000E+03  0.7818608E-02  0.1093470E+00
          3   -1    0    0  502    0  0.00000000000E+00  0.00000000000E+00  0.43570284479E+02  0.43570284479E+02  0.00000000000E+00 0.  1.
         13   -1    0    0    0    0 -0.00000000000E+00 -0.00000000000E+00 -0.10000000000E+04  0.10000000000E+04  0.00000000000E+00 0.  1.
    9000005    2    1    2  501    0 -0.76983205049E+01 -0.21040380120E+02 -0.96688784747E+03  0.10188451099E+04  0.32042360500E+03 0.  0.
         13    1    3    3    0    0  0.65840580173E+01  0.13226440686E+02  0.23501702026E+02  0.27760017135E+02  0.00000000000E+00 0.  1.
          3    1    3    3  501    0 -0.14282378522E+02 -0.34266820806E+02 -0.99038954950E+03  0.99108509276E+03  0.00000000000E+00 0.  1.
         21    1    1    2  502  501  0.76983205049E+01  0.21040380120E+02  0.10458131951E+02  0.24725174582E+02  0.00000000000E+00 0. -1.
<mgrwt>
<rscale>  1 0.30000000E+03</rscale>
<asrwt>0</asrwt>
<pdfrwt beam="1">  1        3 0.15843773E+00 0.30000000E+03</pdfrwt>
<pdfrwt beam="2">0</pdfrwt>
<totfact> 0.74774857E-01</totfact>
</mgrwt>
</event>
<event>
 6    1  0.1940992E-004  0.3000000E+03  0.7818608E-02  0.1093470E+00
          1   -1    0    0  502    0  0.00000000000E+00  0.00000000000E+00  0.43771567438E+02  0.43771567438E+02  0.00000000000E+00 0.  1.
         13   -1    0    0    0    0 -0.00000000000E+00 -0.00000000000E+00 -0.10000000000E+04  0.10000000000E+04  0.00000000000E+00 0.  1.
    9000005    2    1    2  501    0 -0.55486972634E+02 -0.18237327706E+02 -0.91075349694E+03  0.96974877349E+03  0.32791667729E+03 0.  0.
         13    1    3    3    0    0  0.11901435227E+03  0.32891805252E+02 -0.57304600988E+03  0.58619793273E+03  0.00000000000E+00 0.  1.
          3    1    3    3  501    0 -0.17450132491E+03 -0.51129132958E+02 -0.33770748706E+03  0.38355084076E+03  0.00000000000E+00 0.  1.
         21    1    1    2  502  501  0.55486972634E+02  0.18237327706E+02 -0.45474935623E+02  0.74022793948E+02  0.00000000000E+00 0.  1.
<mgrwt>
<rscale>  1 0.30000000E+03</rscale>
<asrwt>0</asrwt>
<pdfrwt beam="1">  1        1 0.15916967E+00 0.30000000E+03</pdfrwt>
<pdfrwt beam="2">0</pdfrwt>
<totfact> 0.16155887E+01</totfact>
</mgrwt>
</event>
<event>
 6    1  0.1940992E-004  0.3000000E+03  0.7818608E-02  0.1093470E+00
          1   -1    0    0  502    0  0.00000000000E+00  0.00000000000E+00  0.30781712547E+02  0.30781712547E+02  0.00000000000E+00 0.  1.
         13   -1    0    0    0    0 -0.00000000000E+00 -0.00000000000E+00 -0.10000000000E+04  0.10000000000E+04  0.00000000000E+00 0.  1.
    9000005    2    1    2  501    0  0.58206604152E+01  0.10985682607E+02 -0.96320091468E+03  0.10169696133E+04  0.32606230549E+03 0.  0.
         13    1    3    3    0    0 -0.55062635470E+02 -0.97567059299E+02 -0.81839077306E+03  0.82602341511E+03  0.00000000000E+00 0.  1.
          3    1    3    3  501    0  0.60883295885E+02  0.10855274191E+03 -0.14481014162E+03  0.19094619821E+03  0.00000000000E+00 0.  1.
         21    1    1    2  502  501 -0.58206604152E+01 -0.10985682607E+02 -0.60173727697E+01  0.13812099227E+02  0.00000000000E+00 0. -1.
<mgrwt>
<rscale>  1 0.30000000E+03</rscale>
<asrwt>0</asrwt>
<pdfrwt beam="1">  1        1 0.11193374E+00 0.30000000E+03</pdfrwt>
<pdfrwt beam="2">0</pdfrwt>
<totfact> 0.28935756E+01</totfact>
</mgrwt>
</event>
<event>
 6    1  0.1940992E-004  0.3000000E+03  0.7818608E-02  0.1093470E+00
          1   -1    0    0  502    0  0.00000000000E+00  0.00000000000E+00  0.40364953188E+02  0.40364953188E+02  0.00000000000E+00 0.  1.
         13   -1    0    0    0    0 -0.00000000000E+00 -0.00000000000E+00 -0.10000000000E+04  0.10000000000E+04  0.00000000000E+00 0.  1.
    9000005    2    1    2  501    0 -0.11938408740E+02 -0.52956780966E+01 -0.96877193641E+03  0.10244259268E+04  0.33280451464E+03 0.  0.
         13    1    3    3    0    0  0.10618027329E+03 -0.17808271692E+02 -0.97988090608E+02  0.14557833244E+03  0.00000000000E+00 0.  1.
          3    1    3    3  501    0 -0.11811868203E+03  0.12512593596E+02 -0.87078384580E+03  0.87884759438E+03  0.00000000000E+00 0.  1.
         21    1    1    2  502  501  0.11938408740E+02  0.52956780966E+01  0.91368896004E+01  0.15939026361E+02  0.00000000000E+00 0.  1.
<mgrwt>
<rscale>  1 0.30000000E+03</rscale>
<asrwt>0</asrwt>
<pdfrwt beam="1">  1        1 0.14678196E+00 0.30000000E+03</pdfrwt>
<pdfrwt beam="2">0</pdfrwt>
<totfact> 0.18658005E+01</totfact>
</mgrwt>
</event>
<event>
 6    1  0.1940992E-004  0.3000000E+03  0.7818608E-02  0.1093470E+00
          1   -1    0    0  502    0  0.00000000000E+00  0.00000000000E+00  0.42059758507E+02  0.42059758507E+02  0.00000000000E+00 0.  1.
         13   -1    0    0    0    0 -0.00000000000E+00 -0.00000000000E+00 -0.10000000000E+04  0.10000000000E+04  0.00000000000E+00 0.  1.
    9000005    2    1    2  501    0 -0.61890919234E+02  0.10550750216E+02 -0.90617301951E+03  0.96068624018E+03  0.31277261159E+03 0.  0.
         13    1    3    3    0    0  0.12800022552E+03  0.62805552544E+01 -0.40131980062E+03  0.42128504065E+03  0.00000000000E+00 0.  1.
          3    1    3    3  501    0 -0.18989114476E+03  0.42701949614E+01 -0.50485321889E+03  0.53940119952E+03  0.00000000000E+00 0.  1.
         21    1    1    2  502  501  0.61890919234E+02 -0.10550750216E+02 -0.51767221981E+02  0.81373518330E+02  0.00000000000E+00 0.  1.
<mgrwt>
<rscale>  1 0.30000000E+03</rscale>
<asrwt>0</asrwt>
<pdfrwt beam="1">  1        1 0.15294490E+00 0.30000000E+03</pdfrwt>
<pdfrwt beam="2">0</pdfrwt>
<totfact> 0.17358452E+01</totfact>
</mgrwt>
</event>
<event>
 6    1  0.1940992E-004  0.3000000E+03  0.7818608E-02  0.1093470E+00
          1   -1    0    0  502    0  0.00000000000E+00  0.00000000000E+00  0.36560960256E+02  0.36560960256E+02  0.00000000000E+00 0.  1.
         13   -1    0    0    0    0 -0.00000000000E+00 -0.00000000000E+00 -0.10000000000E+04  0.10000000000E+04  0.00000000000E+00 0.  1.
    9000005    2    1    2  501    0  0.93510668819E+01 -0.25237013683E+02 -0.95400228185E+03  0.10080407620E+04  0.32450188703E+03 0.  0.
         13    1    3    3    0    0 -0.15518122360E+03 -0.40245145392E+02 -0.48138913397E+03  0.50738188989E+03  0.00000000000E+00 0.  1.
          3    1    3    3  501    0  0.16453229049E+03  0.15008131710E+02 -0.47261314788E+03  0.50065887207E+03  0.00000000000E+00 0.  1.
         21    1    1    2  502  501 -0.93510668819E+01  0.25237013683E+02 -0.94367578976E+01  0.28520198300E+02  0.00000000000E+00 0.  1.
<mgrwt>
<rscale>  1 0.30000000E+03</rscale>
<asrwt>0</asrwt>
<pdfrwt beam="1">  1        1 0.13294923E+00 0.30000000E+03</pdfrwt>
<pdfrwt beam="2">0</pdfrwt>
<totfact> 0.22053826E+01</totfact>
</mgrwt>
</event>
<event>
 6    1  0.1940992E-004  0.3000000E+03  0.7818608E-02  0.1093470E+00
          1   -1    0    0  502    0  0.00000000000E+00  0.00000000000E+00  0.52836924766E+02  0.52836924766E+02  0.00000000000E+00 0.  1.
         13   -1    0    0    0    0 -0.00000000000E+00 -0.00000000000E+00 -0.10000000000E+04  0.10000000000E+04  0.00000000000E+00 0.  1.
    9000005    2    1    2  501    0  0.94695269695E+02  0.26328767819E+02 -0.77185858089E+03  0.85185915522E+03  0.34675344743E+03 0.  0.
         13    1    3    3    0    0  0.59166525851E+02  0.18653182739E+03 -0.39466348586E+03  0.44051568359E+03  0.00000000000E+00 0.  1.
          1    1    3    3  501    0  0.35528743844E+02 -0.16020305958E+03 -0.37719509503E+03  0.41134347163E+03  0.00000000000E+00 0.  1.
         21    1    1    2  502  501 -0.94695269695E+02 -0.26328767819E+02 -0.17530449434E+03  0.20097776955E+03  0.00000000000E+00 0.  1.
<mgrwt>
<rscale>  1 0.30000000E+03</rscale>
<asrwt>0</asrwt>
<pdfrwt beam="1">  1        1 0.19213468E+00 0.30000000E+03</pdfrwt>
<pdfrwt beam="2">0</pdfrwt>
<totfact> 0.11167648E+01</totfact>
</mgrwt>
</event>
<event>
 6    1  0.1940992E-004  0.3000000E+03  0.7818608E-02  0.1093470E+00
          3   -1    0    0  502    0  0.00000000000E+00  0.00000000000E+00  0.39465005213E+02  0.39465005213E+02  0.00000000000E+00 0.  1.
         13   -1    0    0    0    0 -0.00000000000E+00 -0.00000000000E+00 -0.10000000000E+04  0.10000000000E+04  0.00000000000E+00 0.  1.
    9000005    2    1    2  501    0  0.25651958663E+02  0.30756500184E+02 -0.93526796922E+03  0.99211093604E+03  0.32856346397E+03 0.  0.
         13    1    3    3    0    0  0.98896552840E+02 -0.74287446641E+02 -0.14090610432E+03  0.18749315488E+03  0.00000000000E+00 0.  1.
          3    1    3    3  501    0 -0.73244594177E+02  0.10504394682E+03 -0.79436186490E+03  0.80461778115E+03  0.00000000000E+00 0.  1.
         21    1    1    2  502  501 -0.25651958663E+02 -0.30756500184E+02 -0.25267025563E+02  0.47354069177E+02  0.00000000000E+00 0.  1.
<mgrwt>
<rscale>  1 0.30000000E+03</rscale>
<asrwt>0</asrwt>
<pdfrwt beam="1">  1        3 0.14350941E+00 0.30000000E+03</pdfrwt>
<pdfrwt beam="2">0</pdfrwt>
<totfact> 0.12079966E+00</totfact>
</mgrwt>
</event>
<event>
 6    1  0.1940992E-004  0.3000000E+03  0.7818608E-02  0.1093470E+00
          1   -1    0    0  502    0  0.00000000000E+00  0.00000000000E+00  0.27940847192E+02  0.27940847192E+02  0.00000000000E+00 0.  1.
         13   -1    0    0    0    0 -0.00000000000E+00 -0.00000000000E+00 -0.10000000000E+04  0.10000000000E+04  0.00000000000E+00 0.  1.
    9000005    2    1    2  501    0 -0.73658397318E+01  0.67575921050E+01 -0.96981929587E+03  0.10176969414E+04  0.30831425092E+03 0.  0.
         13    1    3    3    0    0  0.31219426058E+02  0.78391896856E+02 -0.58318640114E+02  0.10257195446E+03  0.00000000000E+00 0.  1.
          3    1    3    3  501    0 -0.38585265790E+02 -0.71634304751E+02 -0.91150065576E+03  0.91512498698E+03  0.00000000000E+00 0.  1.
         21    1    1    2  502  501  0.73658397318E+01 -0.67575921050E+01 -0.22398569360E+01  0.10243905754E+02  0.00000000000E+00 0. -1.
<mgrwt>
<rscale>  1 0.30000000E+03</rscale>
<asrwt>0</asrwt>
<pdfrwt beam="1">  1        1 0.10160329E+00 0.30000000E+03</pdfrwt>
<pdfrwt beam="2">0</pdfrwt>
<totfact> 0.33438229E+01</totfact>
</mgrwt>
</event>
<event>
 6    1  0.1940992E-004  0.3000000E+03  0.7818608E-02  0.1093470E+00
          1   -1    0    0  502    0  0.00000000000E+00  0.00000000000E+00  0.29955136247E+02  0.29955136247E+02  0.00000000000E+00 0.  1.
         13   -1    0    0    0    0 -0.00000000000E+00 -0.00000000000E+00 -0.10000000000E+04  0.10000000000E+04  0.00000000000E+00 0.  1.
    9000005    2    1    2  501    0  0.10646021508E+02 -0.14825319743E+02 -0.93865260883E+03  0.99364258265E+03  0.32545926645E+03 0.  0.
         13    1    3    3    0    0  0.83905153977E+02 -0.26566825709E+01 -0.91028251833E+03  0.91414517228E+03  0.00000000000E+00 0.  1.
          3    1    3    3  501    0 -0.73259132470E+02 -0.12168637172E+02 -0.28370090499E+02  0.79497410371E+02  0.00000000000E+00 0.  1.
         21    1    1    2  502  501 -0.10646021508E+02  0.14825319743E+02 -0.31392254924E+02  0.36312553596E+02  0.00000000000E+00 0.  1.
<mgrwt>
<rscale>  1 0.30000000E+03</rscale>
<asrwt>0</asrwt>
<pdfrwt beam="1">  1        1 0.10892800E+00 0.30000000E+03</pdfrwt>
<pdfrwt beam="2">0</pdfrwt>
<totfact> 0.30151356E+01</totfact>
</mgrwt>
</event>
<event>
 6    1  0.1940992E-004  0.3000000E+03  0.7818608E-02  0.1093470E+00
          1   -1    0    0  502    0  0.00000000000E+00  0.00000000000E+00  0.36513531922E+02  0.36513531922E+02  0.00000000000E+00 0.  1.
         13   -1    0    0    0    0 -0.00000000000E+00 -0.00000000000E+00 -0.10000000000E+04  0.10000000000E+04  0.00000000000E+00 0.  1.
    9000005    2    1    2  501    0  0.17768372657E+02  0.26022071053E+02 -0.95473510035E+03  0.10038110903E+04  0.30842297253E+03 0.  0.
         13    1    3    3    0    0 -0.93763102779E+02 -0.10276687101E+03 -0.39972540367E+03  0.42324100411E+03  0.00000000000E+00 0.  1.
          3    1    3    3  501    0  0.11153147544E+03  0.12878894206E+03 -0.55500969668E+03  0.58057008622E+03  0.00000000000E+00 0.  1.
         21    1    1    2  502  501 -0.17768372657E+02 -0.26022071053E+02 -0.87513677274E+01  0.32702441589E+02  0.00000000000E+00 0.  1.
<mgrwt>
<rscale>  1 0.30000000E+03</rscale>
<asrwt>0</asrwt>
<pdfrwt beam="1">  1        1 0.13277676E+00 0.30000000E+03</pdfrwt>
<pdfrwt beam="2">0</pdfrwt>
<totfact> 0.22101040E+01</totfact>
</mgrwt>
</event>
<event>
 6    1  0.1940992E-004  0.3000000E+03  0.7818608E-02  0.1093470E+00
          1   -1    0    0  502    0  0.00000000000E+00  0.00000000000E+00  0.30186118509E+02  0.30186118509E+02  0.00000000000E+00 0.  1.
         13   -1    0    0    0    0 -0.00000000000E+00 -0.00000000000E+00 -0.10000000000E+04  0.10000000000E+04  0.00000000000E+00 0.  1.
    9000005    2    1    2  501    0 -0.10704463219E+02  0.78358003269E+00 -0.96507687559E+03  0.10184541641E+04  0.32520810099E+03 0.  0.
         13    1    3    3    0    0 -0.32072099658E+02  0.15414810237E+03 -0.62922269684E+03  0.64862274032E+03  0.00000000000E+00 0.  1.
          3    1    3    3  501    0  0.21367636439E+02 -0.15336452233E+03 -0.33585417875E+03  0.36983142373E+03  0.00000000000E+00 0.  1.
         21    1    1    2  502  501  0.10704463219E+02 -0.78358003269E+00 -0.47370059027E+01  0.11731954458E+02  0.00000000000E+00 0.  1.
<mgrwt>
<rscale>  1 0.30000000E+03</rscale>
<asrwt>0</asrwt>
<pdfrwt beam="1">  1        1 0.10976794E+00 0.30000000E+03</pdfrwt>
<pdfrwt beam="2">0</pdfrwt>
<totfact> 0.29804479E+01</totfact>
</mgrwt>
</event>
<event>
 6    1  0.1940992E-004  0.3000000E+03  0.7818608E-02  0.1093470E+00
          1   -1    0    0  502    0  0.00000000000E+00  0.00000000000E+00  0.79169214733E+02  0.79169214733E+02  0.00000000000E+00 0.  1.
         13   -1    0    0    0    0 -0.00000000000E+00 -0.00000000000E+00 -0.10000000000E+04  0.10000000000E+04  0.00000000000E+00 0.  1.
    9000005    2    1    2  501    0  0.13960557226E+02  0.88374680321E+02 -0.93002378327E+03  0.98922760872E+03  0.32499545093E+03 0.  0.
         13    1    3    3    0    0  0.12988279112E+03 -0.30880309596E+02 -0.19975847748E+03  0.24026356835E+03  0.00000000000E+00 0.  1.
          3    1    3    3  501    0 -0.11592223389E+03  0.11925498992E+03 -0.73026530579E+03  0.74896404037E+03  0.00000000000E+00 0.  1.
         21    1    1    2  502  501 -0.13960557226E+02 -0.88374680321E+02  0.91929980044E+01  0.89941606013E+02  0.00000000000E+00 0.  1.
<mgrwt>
<rscale>  1 0.30000000E+03</rscale>
<asrwt>0</asrwt>
<pdfrwt beam="1">  1        1 0.28788866E+00 0.30000000E+03</pdfrwt>
<pdfrwt beam="2">0</pdfrwt>
<totfact> 0.39646354E+00</totfact>
</mgrwt>
</event>
<event>
 6    1  0.1940992E-004  0.3000000E+03  0.7818608E-02  0.1093470E+00
          1   -1    0    0  502    0  0.00000000000E+00  0.00000000000E+00  0.43024802659E+02  0.43024802659E+02  0.00000000000E+00 0.  1.
         13   -1    0    0    0    0 -0.00000000000E+00 -0.00000000000E+00 -0.10000000000E+04  0.10000000000E+04  0.00000000000E+00 0.  1.
    9000005    2    1    2  501    0 -0.11812584907E+02 -0.24240149532E+00 -0.97122069725E+03  0.10245172315E+04  0.32592379330E+03 0.  0.
         13    1    3    3    0    0  0.28670827498E+02  0.12521595707E+03 -0.79024784392E+03  0.80062020151E+03  0.00000000000E+00 0.  1.
          1    1    3    3  501    0 -0.40483412405E+02 -0.12545835856E+03 -0.18097285334E+03  0.22389703004E+03  0.00000000000E+00 0.  1.
         21    1    1    2  502  501  0.11812584907E+02  0.24240149532E+00  0.14245499913E+02  0.18507571111E+02  0.00000000000E+00 0.  1.
<mgrwt>
<rscale>  1 0.30000000E+03</rscale>
<asrwt>0</asrwt>
<pdfrwt beam="1">  1        1 0.15645416E+00 0.30000000E+03</pdfrwt>
<pdfrwt beam="2">0</pdfrwt>
<totfact> 0.16667864E+01</totfact>
</mgrwt>
</event>
<event>
 6    1  0.1940992E-004  0.3000000E+03  0.7818608E-02  0.1093470E+00
          1   -1    0    0  502    0  0.00000000000E+00  0.00000000000E+00  0.40035164964E+02  0.40035164964E+02  0.00000000000E+00 0.  1.
         13   -1    0    0    0    0 -0.00000000000E+00 -0.00000000000E+00 -0.10000000000E+04  0.10000000000E+04  0.00000000000E+00 0.  1.
    9000005    2    1    2  501    0 -0.17685258064E+02  0.32154959342E+02 -0.94108695905E+03  0.99876672709E+03  0.33248097822E+03 0.  0.
         13    1    3    3    0    0 -0.23720107587E+02  0.10465757923E+03 -0.78111667313E+02  0.13273012079E+03  0.00000000000E+00 0.  1.
          1    1    3    3  501    0  0.60348495226E+01 -0.72502619888E+02 -0.86297529174E+03  0.86603660630E+03  0.00000000000E+00 0.  1.
         21    1    1    2  502  501  0.17685258064E+02 -0.32154959342E+02 -0.18877875987E+02  0.41268437878E+02  0.00000000000E+00 0.  1.
<mgrwt>
<rscale>  1 0.30000000E+03</rscale>
<asrwt>0</asrwt>
<pdfrwt beam="1">  1        1 0.14558273E+00 0.30000000E+03</pdfrwt>
<pdfrwt beam="2">0</pdfrwt>
<totfact> 0.18924816E+01</totfact>
</mgrwt>
</event>
<event>
 6    1  0.1940992E-004  0.3000000E+03  0.7818608E-02  0.1093470E+00
          1   -1    0    0  502    0  0.00000000000E+00  0.00000000000E+00  0.34058021382E+02  0.34058021382E+02  0.00000000000E+00 0.  1.
         13   -1    0    0    0    0 -0.00000000000E+00 -0.00000000000E+00 -0.10000000000E+04  0.10000000000E+04  0.00000000000E+00 0.  1.
    9000005    2    1    2  501    0 -0.11327013402E+02 -0.38350495748E+01 -0.96843474065E+03  0.10218423470E+04  0.32581118212E+03 0.  0.
         13    1    3    3    0    0 -0.11985426141E+02  0.16087247931E+03 -0.48151327228E+03  0.50781752276E+03  0.00000000000E+00 0.  1.
          1    1    3    3  501    0  0.65841273861E+00 -0.16470752889E+03 -0.48692146837E+03  0.51402482425E+03  0.00000000000E+00 0.  1.
         21    1    1    2  502  501  0.11327013402E+02  0.38350495748E+01  0.24927620360E+01  0.12215674375E+02  0.00000000000E+00 0.  1.
<mgrwt>
<rscale>  1 0.30000000E+03</rscale>
<asrwt>0</asrwt>
<pdfrwt beam="1">  1        1 0.12384761E+00 0.30000000E+03</pdfrwt>
<pdfrwt beam="2">0</pdfrwt>
<totfact> 0.24735840E+01</totfact>
</mgrwt>
</event>
<event>
 6    1  0.1940992E-004  0.3000000E+03  0.7818608E-02  0.1093470E+00
          1   -1    0    0  502    0  0.00000000000E+00  0.00000000000E+00  0.45805890760E+02  0.45805890760E+02  0.00000000000E+00 0.  1.
         13   -1    0    0    0    0 -0.00000000000E+00 -0.00000000000E+00 -0.10000000000E+04  0.10000000000E+04  0.00000000000E+00 0.  1.
    9000005    2    1    2  501    0 -0.19677688240E+01  0.12968631255E+02 -0.97066078336E+03  0.10247533644E+04  0.32827586561E+03 0.  0.
         13    1    3    3    0    0 -0.70877564449E+02 -0.10417977996E+03 -0.78283614339E+03  0.79291202733E+03  0.00000000000E+00 0.  1.
          1    1    3    3  501    0  0.68909795625E+02  0.11714841121E+03 -0.18782463997E+03  0.23184133704E+03  0.00000000000E+00 0.  1.
         21    1    1    2  502  501  0.19677688240E+01 -0.12968631255E+02  0.16466674115E+02  0.21052526385E+02  0.00000000000E+00 0.  1.
<mgrwt>
<rscale>  1 0.30000000E+03</rscale>
<asrwt>0</asrwt>
<pdfrwt beam="1">  1        1 0.16656723E+00 0.30000000E+03</pdfrwt>
<pdfrwt beam="2">0</pdfrwt>
<totfact> 0.14851361E+01</totfact>
</mgrwt>
</event>
<event>
 6    1  0.1940992E-004  0.3000000E+03  0.7818608E-02  0.1093470E+00
          1   -1    0    0  502    0  0.00000000000E+00  0.00000000000E+00  0.30128829832E+02  0.30128829832E+02  0.00000000000E+00 0.  1.
         13   -1    0    0    0    0 -0.00000000000E+00 -0.00000000000E+00 -0.10000000000E+04  0.10000000000E+04  0.00000000000E+00 0.  1.
    9000005    2    1    2  501    0  0.27423673866E+01 -0.11912910641E+02 -0.96255621889E+03  0.10158828995E+04  0.32458304476E+03 0.  0.
         13    1    3    3    0    0  0.11762702221E+03  0.84685583375E+02 -0.68674976363E+03  0.70187819615E+03  0.00000000000E+00 0.  1.
          3    1    3    3  501    0 -0.11488465483E+03 -0.96598494017E+02 -0.27580645527E+03  0.31400470335E+03  0.00000000000E+00 0.  1.
         21    1    1    2  502  501 -0.27423673866E+01  0.11912910641E+02 -0.73149512736E+01  0.14245930330E+02  0.00000000000E+00 0.  1.
<mgrwt>
<rscale>  1 0.30000000E+03</rscale>
<asrwt>0</asrwt>
<pdfrwt beam="1">  1        1 0.10955961E+00 0.30000000E+03</pdfrwt>
<pdfrwt beam="2">0</pdfrwt>
<totfact> 0.29889980E+01</totfact>
</mgrwt>
</event>
<event>
 6    1  0.1940992E-004  0.3000000E+03  0.7818608E-02  0.1093470E+00
          1   -1    0    0  502    0  0.00000000000E+00  0.00000000000E+00  0.45392882091E+02  0.45392882091E+02  0.00000000000E+00 0.  1.
         13   -1    0    0    0    0 -0.00000000000E+00 -0.00000000000E+00 -0.10000000000E+04  0.10000000000E+04  0.00000000000E+00 0.  1.
    9000005    2    1    2  501    0 -0.13208667634E+02 -0.25637623239E+02 -0.96396437210E+03  0.10150726771E+04  0.31672302164E+03 0.  0.
         13    1    3    3    0    0 -0.13786653871E+02  0.33287726786E+02  0.11507241584E+02  0.37822760190E+02  0.00000000000E+00 0.  1.
          1    1    3    3  501    0  0.57798623719E+00 -0.58925350025E+02 -0.97547161369E+03  0.97724991689E+03  0.00000000000E+00 0.  1.
         21    1    1    2  502  501  0.13208667634E+02  0.25637623239E+02  0.93572541954E+01  0.30320205014E+02  0.00000000000E+00 0.  1.
<mgrwt>
<rscale>  1 0.30000000E+03</rscale>
<asrwt>0</asrwt>
<pdfrwt beam="1">  1        1 0.16506537E+00 0.30000000E+03</pdfrwt>
<pdfrwt beam="2">0</pdfrwt>
<totfact> 0.15106107E+01</totfact>
</mgrwt>
</event>
<event>
 6    1  0.1940992E-004  0.3000000E+03  0.7818608E-02  0.1093470E+00
          1   -1    0    0  502    0  0.00000000000E+00  0.00000000000E+00  0.41815718889E+02  0.41815718889E+02  0.00000000000E+00 0.  1.
         13   -1    0    0    0    0 -0.00000000000E+00 -0.00000000000E+00 -0.10000000000E+04  0.10000000000E+04  0.00000000000E+00 0.  1.
    9000005    2    1    2  501    0  0.36462940908E+02 -0.55104427442E+02 -0.86682009356E+03  0.92906174446E+03  0.32773862517E+03 0.  0.
         13    1    3    3    0    0 -0.88196896740E+02 -0.14827479181E+03 -0.36611345670E+03  0.40472604272E+03  0.00000000000E+00 0.  1.
          3    1    3    3  501    0  0.12465983765E+03  0.93170364366E+02 -0.50070663686E+03  0.52433570174E+03  0.00000000000E+00 0.  1.
         21    1    1    2  502  501 -0.36462940908E+02  0.55104427442E+02 -0.91364187547E+02  0.11275397443E+03  0.00000000000E+00 0.  1.
<mgrwt>
<rscale>  1 0.30000000E+03</rscale>
<asrwt>0</asrwt>
<pdfrwt beam="1">  1        1 0.15205748E+00 0.30000000E+03</pdfrwt>
<pdfrwt beam="2">0</pdfrwt>
<totfact> 0.17538538E+01</totfact>
</mgrwt>
</event>
<event>
 6    1  0.1940992E-004  0.3000000E+03  0.7818608E-02  0.1093470E+00
          1   -1    0    0  502    0  0.00000000000E+00  0.00000000000E+00  0.29122633069E+02  0.29122633069E+02  0.00000000000E+00 0.  1.
         13   -1    0    0    0    0 -0.00000000000E+00 -0.00000000000E+00 -0.10000000000E+04  0.10000000000E+04  0.00000000000E+00 0.  1.
    9000005    2    1    2  501    0  0.24623126340E+02 -0.25834566796E+01 -0.85868166158E+03  0.91422768584E+03  0.31283397039E+03 0.  0.
         13    1    3    3    0    0 -0.17738412901E+02 -0.41424431972E+02  0.78935700981E+01  0.45748697308E+02  0.00000000000E+00 0.  1.
          1    1    3    3  501    0  0.42361539241E+02  0.38840975292E+02 -0.86657523168E+03  0.86847898853E+03  0.00000000000E+00 0.  1.
         21    1    1    2  502  501 -0.24623126340E+02  0.25834566796E+01 -0.11219570535E+03  0.11489494723E+03  0.00000000000E+00 0. -1.
<mgrwt>
<rscale>  1 0.30000000E+03</rscale>
<asrwt>0</asrwt>
<pdfrwt beam="1">  1        1 0.10590071E+00 0.30000000E+03</pdfrwt>
<pdfrwt beam="2">0</pdfrwt>
<totfact> 0.31450616E+01</totfact>
</mgrwt>
</event>
<event>
 6    1  0.1940992E-004  0.3000000E+03  0.7818608E-02  0.1093470E+00
          1   -1    0    0  502    0  0.00000000000E+00  0.00000000000E+00  0.76671068640E+02  0.76671068640E+02  0.00000000000E+00 0.  1.
         13   -1    0    0    0    0 -0.00000000000E+00 -0.00000000000E+00 -0.10000000000E+04  0.10000000000E+04  0.00000000000E+00 0.  1.
    9000005    2    1    2  501    0 -0.23174152112E+02 -0.25200689309E+01 -0.97340389193E+03  0.10214361725E+04  0.30866377439E+03 0.  0.
         13    1    3    3    0    0 -0.16556214326E+03  0.69144313337E+01 -0.56633772280E+03  0.59008223910E+03  0.00000000000E+00 0.  1.
          3    1    3    3  501    0  0.14238799114E+03 -0.94345002647E+01 -0.40706616913E+03  0.43135393341E+03  0.00000000000E+00 0.  1.
         21    1    1    2  502  501  0.23174152112E+02  0.25200689309E+01  0.50074960573E+02  0.55234896124E+02  0.00000000000E+00 0.  1.
<mgrwt>
<rscale>  1 0.30000000E+03</rscale>
<asrwt>0</asrwt>
<pdfrwt beam="1">  1        1 0.27880447E+00 0.30000000E+03</pdfrwt>
<pdfrwt beam="2">0</pdfrwt>
<totfact> 0.43738935E+00</totfact>
</mgrwt>
</event>
<event>
 6    1  0.1940992E-004  0.3000000E+03  0.7818608E-02  0.1093470E+00
          1   -1    0    0  502    0  0.00000000000E+00  0.00000000000E+00  0.30942898731E+02  0.30942898731E+02  0.00000000000E+00 0.  1.
         13   -1    0    0    0    0 -0.00000000000E+00 -0.00000000000E+00 -0.10000000000E+04  0.10000000000E+04  0.00000000000E+00 0.  1.
    9000005    2    1    2  501    0  0.59151066666E+01  0.12289170557E+02 -0.96113966534E+03  0.10151727373E+04  0.32649688830E+03 0.  0.
         13    1    3    3    0    0 -0.73160334997E+02 -0.75289434567E+02 -0.83827898435E+03  0.84482695812E+03  0.00000000000E+00 0.  1.
          3    1    3    3  501    0  0.79075441664E+02  0.87578605124E+02 -0.12286068099E+03  0.17034577918E+03  0.00000000000E+00 0.  1.
         21    1    1    2  502  501 -0.59151066666E+01 -0.12289170557E+02 -0.79174359337E+01  0.15770161433E+02  0.00000000000E+00 0.  1.
<mgrwt>
<rscale>  1 0.30000000E+03</rscale>
<asrwt>0</asrwt>
<pdfrwt beam="1">  1        1 0.11251987E+00 0.30000000E+03</pdfrwt>
<pdfrwt beam="2">0</pdfrwt>
<totfact> 0.28706817E+01</totfact>
</mgrwt>
</event>
<event>
 6    1  0.1940992E-004  0.3000000E+03  0.7818608E-02  0.1093470E+00
          1   -1    0    0  502    0  0.00000000000E+00  0.00000000000E+00  0.47423776502E+02  0.47423776502E+02  0.00000000000E+00 0.  1.
         13   -1    0    0    0    0 -0.00000000000E+00 -0.00000000000E+00 -0.10000000000E+04  0.10000000000E+04  0.00000000000E+00 0.  1.
    9000005    2    1    2  501    0  0.12170673040E+02  0.29895561658E+01 -0.97422321838E+03  0.10224106776E+04  0.30992846232E+03 0.  0.
         13    1    3    3    0    0 -0.84253069999E+01  0.15575092998E+03 -0.50000986871E+03  0.52377400355E+03  0.00000000000E+00 0.  1.
          1    1    3    3  501    0  0.20595980039E+02 -0.15276137381E+03 -0.47421334967E+03  0.49863667407E+03  0.00000000000E+00 0.  1.
         21    1    1    2  502  501 -0.12170673040E+02 -0.29895561658E+01  0.21646994881E+02  0.25013098882E+02  0.00000000000E+00 0.  1.
<mgrwt>
<rscale>  1 0.30000000E+03</rscale>
<asrwt>0</asrwt>
<pdfrwt beam="1">  1        1 0.17245046E+00 0.30000000E+03</pdfrwt>
<pdfrwt beam="2">0</pdfrwt>
<totfact> 0.13899219E+01</totfact>
</mgrwt>
</event>
<event>
 6    1  0.1940992E-004  0.3000000E+03  0.7818608E-02  0.1093470E+00
          1   -1    0    0  502    0  0.00000000000E+00  0.00000000000E+00  0.36903944170E+02  0.36903944170E+02  0.00000000000E+00 0.  1.
         13   -1    0    0    0    0 -0.00000000000E+00 -0.00000000000E+00 -0.10000000000E+04  0.10000000000E+04  0.00000000000E+00 0.  1.
    9000005    2    1    2  501    0 -0.12764852635E+02 -0.53956793062E+01 -0.96865733020E+03  0.10219713426E+04  0.32547864270E+03 0.  0.
         13    1    3    3    0    0 -0.10758028189E+03 -0.11350431062E+03 -0.69994764810E+03  0.71720530928E+03  0.00000000000E+00 0.  1.
          3    1    3    3  501    0  0.94815429255E+02  0.10810863131E+03 -0.26870968210E+03  0.30476603329E+03  0.00000000000E+00 0.  1.
         21    1    1    2  502  501  0.12764852635E+02  0.53956793062E+01  0.55612743740E+01  0.14932601603E+02  0.00000000000E+00 0. -1.
<mgrwt>
<rscale>  1 0.30000000E+03</rscale>
<asrwt>0</asrwt>
<pdfrwt beam="1">  1        1 0.13419644E+00 0.30000000E+03</pdfrwt>
<pdfrwt beam="2">0</pdfrwt>
<totfact> 0.21716331E+01</totfact>
</mgrwt>
</event>
<event>
 6    1  0.1940992E-004  0.3000000E+03  0.7818608E-02  0.1093470E+00
          1   -1    0    0  502    0  0.00000000000E+00  0.00000000000E+00  0.29327128431E+02  0.29327128431E+02  0.00000000000E+00 0.  1.
         13   -1    0    0    0    0 -0.00000000000E+00 -0.00000000000E+00 -0.10000000000E+04  0.10000000000E+04  0.00000000000E+00 0.  1.
    9000005    2    1    2  501    0  0.10689913344E+02  0.11037115452E+02 -0.95226401909E+03  0.10053484292E+04  0.32199784158E+03 0.  0.
         13    1    3    3    0    0 -0.13230425340E+03 -0.50636198445E+02 -0.26315704777E+03  0.29886463801E+03  0.00000000000E+00 0.  1.
          3    1    3    3  501    0  0.14299416674E+03  0.61673313896E+02 -0.68910697132E+03  0.70648379124E+03  0.00000000000E+00 0.  1.
         21    1    1    2  502  501 -0.10689913344E+02 -0.11037115452E+02 -0.18408852483E+02  0.23978699183E+02  0.00000000000E+00 0.  1.
<mgrwt>
<rscale>  1 0.30000000E+03</rscale>
<asrwt>0</asrwt>
<pdfrwt beam="1">  1        1 0.10664433E+00 0.30000000E+03</pdfrwt>
<pdfrwt beam="2">0</pdfrwt>
<totfact> 0.31124130E+01</totfact>
</mgrwt>
</event>
<event>
 6    1  0.1940992E-004  0.3000000E+03  0.7818608E-02  0.1093470E+00
          1   -1    0    0  502    0  0.00000000000E+00  0.00000000000E+00  0.36118404044E+02  0.36118404044E+02  0.00000000000E+00 0.  1.
         13   -1    0    0    0    0 -0.00000000000E+00 -0.00000000000E+00 -0.10000000000E+04  0.10000000000E+04  0.00000000000E+00 0.  1.
    9000005    2    1    2  501    0  0.94579501685E+01 -0.19863955036E+02 -0.94102800029E+03  0.10043959141E+04  0.35041892853E+03 0.  0.
         13    1    3    3    0    0  0.99921738066E+02  0.87281107687E+02 -0.77854843373E+03  0.78977212483E+03  0.00000000000E+00 0.  1.
          1    1    3    3  501    0 -0.90463787898E+02 -0.10714506272E+03 -0.16247956657E+03  0.21462378931E+03  0.00000000000E+00 0.  1.
         21    1    1    2  502  501 -0.94579501685E+01  0.19863955036E+02 -0.22853595663E+02  0.31722489905E+02  0.00000000000E+00 0.  1.
<mgrwt>
<rscale>  1 0.30000000E+03</rscale>
<asrwt>0</asrwt>
<pdfrwt beam="1">  1        1 0.13133993E+00 0.30000000E+03</pdfrwt>
<pdfrwt beam="2">0</pdfrwt>
<totfact> 0.22499590E+01</totfact>
</mgrwt>
</event>
<event>
 6    1  0.1940992E-004  0.3000000E+03  0.7818608E-02  0.1093470E+00
          1   -1    0    0  502    0  0.00000000000E+00  0.00000000000E+00  0.45432075522E+02  0.45432075522E+02  0.00000000000E+00 0.  1.
         13   -1    0    0    0    0 -0.00000000000E+00 -0.00000000000E+00 -0.10000000000E+04  0.10000000000E+04  0.00000000000E+00 0.  1.
    9000005    2    1    2  501    0 -0.30047958378E+02 -0.41948130803E+02 -0.93455741160E+03  0.99008818601E+03  0.32282276101E+03 0.  0.
         13    1    3    3    0    0 -0.15268651882E+03 -0.17857406907E+02 -0.76005260659E+03  0.77544311513E+03  0.00000000000E+00 0.  1.
          1    1    3    3  501    0  0.12263856044E+03 -0.24090723896E+02 -0.17450480501E+03  0.21464507088E+03  0.00000000000E+00 0.  1.
         21    1    1    2  502  501  0.30047958378E+02  0.41948130803E+02 -0.20010512879E+02  0.55343889511E+02  0.00000000000E+00 0.  1.
<mgrwt>
<rscale>  1 0.30000000E+03</rscale>
<asrwt>0</asrwt>
<pdfrwt beam="1">  1        1 0.16520790E+00 0.30000000E+03</pdfrwt>
<pdfrwt beam="2">0</pdfrwt>
<totfact> 0.15081720E+01</totfact>
</mgrwt>
</event>
<event>
 6    1  0.1940992E-004  0.3000000E+03  0.7818608E-02  0.1093470E+00
          1   -1    0    0  502    0  0.00000000000E+00  0.00000000000E+00  0.28765856225E+02  0.28765856225E+02  0.00000000000E+00 0.  1.
         13   -1    0    0    0    0 -0.00000000000E+00 -0.00000000000E+00 -0.10000000000E+04  0.10000000000E+04  0.00000000000E+00 0.  1.
    9000005    2    1    2  501    0  0.15098642543E+01 -0.15159750804E+02 -0.95537941698E+03  0.10067779028E+04  0.31720626952E+03 0.  0.
         13    1    3    3    0    0 -0.62590655694E+02  0.40655042659E+02 -0.34916192704E+02  0.82398805736E+02  0.00000000000E+00 0.  1.
          1    1    3    3  501    0  0.64100519949E+02 -0.55814793463E+02 -0.92046322427E+03  0.92437909705E+03  0.00000000000E+00 0.  1.
         21    1    1    2  502  501 -0.15098642543E+01  0.15159750804E+02 -0.15854726798E+02  0.21987953437E+02  0.00000000000E+00 0. -1.
<mgrwt>
<rscale>  1 0.30000000E+03</rscale>
<asrwt>0</asrwt>
<pdfrwt beam="1">  1        1 0.10460333E+00 0.30000000E+03</pdfrwt>
<pdfrwt beam="2">0</pdfrwt>
<totfact> 0.32032175E+01</totfact>
</mgrwt>
</event>
<event>
 6    1  0.1940992E-004  0.3000000E+03  0.7818608E-02  0.1093470E+00
          1   -1    0    0  502    0  0.00000000000E+00  0.00000000000E+00  0.31037174198E+02  0.31037174198E+02  0.00000000000E+00 0.  1.
         13   -1    0    0    0    0 -0.00000000000E+00 -0.00000000000E+00 -0.10000000000E+04  0.10000000000E+04  0.00000000000E+00 0.  1.
    9000005    2    1    2  501    0 -0.67880767043E+00  0.97792693985E+01 -0.96373435035E+03  0.10199271857E+04  0.33372364481E+03 0.  0.
         13    1    3    3    0    0  0.87831641730E+02  0.11453337974E+03 -0.76481507049E+03  0.77831509327E+03  0.00000000000E+00 0.  1.
          1    1    3    3  501    0 -0.88510449400E+02 -0.10475411034E+03 -0.19891927986E+03  0.24161209239E+03  0.00000000000E+00 0.  1.
         21    1    1    2  502  501  0.67880767043E+00 -0.97792693985E+01 -0.52284754474E+01  0.11109988539E+02  0.00000000000E+00 0. -1.
<mgrwt>
<rscale>  1 0.30000000E+03</rscale>
<asrwt>0</asrwt>
<pdfrwt beam="1">  1        1 0.11286269E+00 0.30000000E+03</pdfrwt>
<pdfrwt beam="2">0</pdfrwt>
<totfact> 0.28574114E+01</totfact>
</mgrwt>
</event>
<event>
 6    1  0.1940992E-004  0.3000000E+03  0.7818608E-02  0.1093470E+00
          1   -1    0    0  502    0  0.00000000000E+00  0.00000000000E+00  0.29721723194E+02  0.29721723194E+02  0.00000000000E+00 0.  1.
         13   -1    0    0    0    0 -0.00000000000E+00 -0.00000000000E+00 -0.10000000000E+04  0.10000000000E+04  0.00000000000E+00 0.  1.
    9000005    2    1    2  501    0  0.25907741397E+01 -0.14573481400E+02 -0.95731008335E+03  0.10100424826E+04  0.32175164709E+03 0.  0.
         13    1    3    3    0    0  0.66322443004E+02 -0.28649800312E+02 -0.93965615367E+03  0.94242939504E+03  0.00000000000E+00 0.  1.
          3    1    3    3  501    0 -0.63731668864E+02  0.14076318912E+02 -0.17653929686E+02  0.67613087518E+02  0.00000000000E+00 0.  1.
         21    1    1    2  502  501 -0.25907741397E+01  0.14573481400E+02 -0.12968193454E+02  0.19679240641E+02  0.00000000000E+00 0. -1.
<mgrwt>
<rscale>  1 0.30000000E+03</rscale>
<asrwt>0</asrwt>
<pdfrwt beam="1">  1        1 0.10807922E+00 0.30000000E+03</pdfrwt>
<pdfrwt beam="2">0</pdfrwt>
<totfact> 0.30507760E+01</totfact>
</mgrwt>
</event>
<event>
 6    1  0.1940992E-004  0.3000000E+03  0.7818608E-02  0.1093470E+00
          1   -1    0    0  502    0  0.00000000000E+00  0.00000000000E+00  0.53046735595E+02  0.53046735595E+02  0.00000000000E+00 0.  1.
         13   -1    0    0    0    0 -0.00000000000E+00 -0.00000000000E+00 -0.10000000000E+04  0.10000000000E+04  0.00000000000E+00 0.  1.
    9000005    2    1    2  501    0 -0.22660060979E+02  0.48971114427E+02 -0.93372054286E+03  0.99748817792E+03  0.34675202165E+03 0.  0.
         13    1    3    3    0    0 -0.49909040319E+02 -0.12988568944E+03 -0.61922873864E+03  0.63466954818E+03  0.00000000000E+00 0.  1.
          3    1    3    3  501    0  0.27248979340E+02  0.17885680387E+03 -0.31449180422E+03  0.36281862974E+03  0.00000000000E+00 0.  1.
         21    1    1    2  502  501  0.22660060979E+02 -0.48971114427E+02 -0.13232721548E+02  0.55558557679E+02  0.00000000000E+00 0. -1.
<mgrwt>
<rscale>  1 0.30000000E+03</rscale>
<asrwt>0</asrwt>
<pdfrwt beam="1">  1        1 0.19289763E+00 0.30000000E+03</pdfrwt>
<pdfrwt beam="2">0</pdfrwt>
<totfact> 0.11074089E+01</totfact>
</mgrwt>
</event>
<event>
 6    1  0.1940992E-004  0.3000000E+03  0.7818608E-02  0.1093470E+00
          1   -1    0    0  502    0  0.00000000000E+00  0.00000000000E+00  0.86769278910E+02  0.86769278910E+02  0.00000000000E+00 0.  1.
         13   -1    0    0    0    0 -0.00000000000E+00 -0.00000000000E+00 -0.10000000000E+04  0.10000000000E+04  0.00000000000E+00 0.  1.
    9000005    2    1    2  501    0  0.18638306969E+03  0.41827297099E+02 -0.71999844036E+03  0.81505824534E+03  0.33080812826E+03 0.  0.
         13    1    3    3    0    0  0.22240180375E+03 -0.41479895054E+02 -0.67856873426E+03  0.71528922201E+03  0.00000000000E+00 0.  1.
          3    1    3    3  501    0 -0.36018734068E+02  0.83307192153E+02 -0.41429706097E+02  0.99769023326E+02  0.00000000000E+00 0.  1.
         21    1    1    2  502  501 -0.18638306969E+03 -0.41827297099E+02 -0.19323228073E+03  0.27171103357E+03  0.00000000000E+00 0. -1.
<mgrwt>
<rscale>  1 0.30000000E+03</rscale>
<asrwt>0</asrwt>
<pdfrwt beam="1">  1        1 0.31552532E+00 0.30000000E+03</pdfrwt>
<pdfrwt beam="2">0</pdfrwt>
<totfact> 0.29275431E+00</totfact>
</mgrwt>
</event>
<event>
 6    1  0.1940992E-004  0.3000000E+03  0.7818608E-02  0.1093470E+00
          1   -1    0    0  502    0  0.00000000000E+00  0.00000000000E+00  0.52342919666E+02  0.52342919666E+02  0.00000000000E+00 0.  1.
         13   -1    0    0    0    0 -0.00000000000E+00 -0.00000000000E+00 -0.10000000000E+04  0.10000000000E+04  0.00000000000E+00 0.  1.
    9000005    2    1    2  501    0  0.13335654892E+02  0.50950830890E+02 -0.93709718195E+03  0.99862757443E+03  0.34107488493E+03 0.  0.
         13    1    3    3    0    0  0.11683152903E+03 -0.71628191928E+02 -0.18860143171E+03  0.23313237462E+03  0.00000000000E+00 0.  1.
          3    1    3    3  501    0 -0.10349587414E+03  0.12257902282E+03 -0.74849575024E+03  0.76549519981E+03  0.00000000000E+00 0.  1.
         21    1    1    2  502  501 -0.13335654892E+02 -0.50950830890E+02 -0.10559898382E+02  0.53715345234E+02  0.00000000000E+00 0.  1.
<mgrwt>
<rscale>  1 0.30000000E+03</rscale>
<asrwt>0</asrwt>
<pdfrwt beam="1">  1        1 0.19033829E+00 0.30000000E+03</pdfrwt>
<pdfrwt beam="2">0</pdfrwt>
<totfact> 0.11391332E+01</totfact>
</mgrwt>
</event>
<event>
 6    1  0.1940992E-004  0.3000000E+03  0.7818608E-02  0.1093470E+00
          1   -1    0    0  502    0  0.00000000000E+00  0.00000000000E+00  0.35099563028E+02  0.35099563028E+02  0.00000000000E+00 0.  1.
         13   -1    0    0    0    0 -0.00000000000E+00 -0.00000000000E+00 -0.10000000000E+04  0.10000000000E+04  0.00000000000E+00 0.  1.
    9000005    2    1    2  501    0  0.10129342188E+02  0.10536110310E+01 -0.97095903103E+03  0.10232496588E+04  0.32276107342E+03 0.  0.
         13    1    3    3    0    0  0.15927451688E+02 -0.29410312721E+01  0.23623239741E+02  0.28642465643E+02  0.00000000000E+00 0.  1.
          3    1    3    3  501    0 -0.57981095007E+01  0.39946423031E+01 -0.99458227078E+03  0.99460719311E+03  0.00000000000E+00 0.  1.
         21    1    1    2  502  501 -0.10129342188E+02 -0.10536110310E+01  0.60585940623E+01  0.11849904277E+02  0.00000000000E+00 0. -1.
<mgrwt>
<rscale>  1 0.30000000E+03</rscale>
<asrwt>0</asrwt>
<pdfrwt beam="1">  1        1 0.12763504E+00 0.30000000E+03</pdfrwt>
<pdfrwt beam="2">0</pdfrwt>
<totfact> 0.23571395E+01</totfact>
</mgrwt>
</event>
<event>
 6    1  0.1940992E-004  0.3000000E+03  0.7818608E-02  0.1093470E+00
          1   -1    0    0  502    0  0.00000000000E+00  0.00000000000E+00  0.39875578402E+02  0.39875578402E+02  0.00000000000E+00 0.  1.
         13   -1    0    0    0    0 -0.00000000000E+00 -0.00000000000E+00 -0.10000000000E+04  0.10000000000E+04  0.00000000000E+00 0.  1.
    9000005    2    1    2  501    0  0.52277383948E+01  0.47402741594E+02 -0.91070105888E+03  0.97119502845E+03  0.33401948369E+03 0.  0.
         13    1    3    3    0    0  0.15495756579E+03 -0.20102176627E+02 -0.59685795278E+03  0.61697273886E+03  0.00000000000E+00 0.  1.
          1    1    3    3  501    0 -0.14972982739E+03  0.67504918221E+02 -0.31384310609E+03  0.35422228958E+03  0.00000000000E+00 0.  1.
         21    1    1    2  502  501 -0.52277383948E+01 -0.47402741594E+02 -0.49423362719E+02  0.68680549953E+02  0.00000000000E+00 0.  1.
<mgrwt>
<rscale>  1 0.30000000E+03</rscale>
<asrwt>0</asrwt>
<pdfrwt beam="1">  1        1 0.14500241E+00 0.30000000E+03</pdfrwt>
<pdfrwt beam="2">0</pdfrwt>
<totfact> 0.19055649E+01</totfact>
</mgrwt>
</event>
<event>
 6    1  0.1940992E-004  0.3000000E+03  0.7818608E-02  0.1093470E+00
          1   -1    0    0  502    0  0.00000000000E+00  0.00000000000E+00  0.62682682152E+02  0.62682682152E+02  0.00000000000E+00 0.  1.
         13   -1    0    0    0    0 -0.00000000000E+00 -0.00000000000E+00 -0.10000000000E+04  0.10000000000E+04  0.00000000000E+00 0.  1.
    9000005    2    1    2  501    0  0.28446619853E+02  0.10351551765E+03 -0.87738277836E+03  0.93973219782E+03  0.31901628685E+03 0.  0.
         13    1    3    3    0    0 -0.14413981196E+03  0.70731896252E+02 -0.39722225061E+03  0.42844463226E+03  0.00000000000E+00 0.  1.
          1    1    3    3  501    0  0.17258643181E+03  0.32783621395E+02 -0.48016052776E+03  0.51128756555E+03  0.00000000000E+00 0.  1.
         21    1    1    2  502  501 -0.28446619853E+02 -0.10351551765E+03 -0.59934539487E+02  0.12295048434E+03  0.00000000000E+00 0.  1.
<mgrwt>
<rscale>  1 0.30000000E+03</rscale>
<asrwt>0</asrwt>
<pdfrwt beam="1">  1        1 0.22793751E+00 0.30000000E+03</pdfrwt>
<pdfrwt beam="2">0</pdfrwt>
<totfact> 0.75668199E+00</totfact>
</mgrwt>
</event>
<event>
 6    1  0.1940992E-004  0.3000000E+03  0.7818608E-02  0.1093470E+00
          1   -1    0    0  502    0  0.00000000000E+00  0.00000000000E+00  0.36653681845E+02  0.36653681845E+02  0.00000000000E+00 0.  1.
         13   -1    0    0    0    0 -0.00000000000E+00 -0.00000000000E+00 -0.10000000000E+04  0.10000000000E+04  0.00000000000E+00 0.  1.
    9000005    2    1    2  501    0 -0.10669765590E+02  0.53858703870E+02 -0.84477250370E+03  0.90598481274E+03  0.32272789470E+03 0.  0.
         13    1    3    3    0    0 -0.51649189679E+02 -0.12929351434E+03 -0.38360313131E+03  0.40808799785E+03  0.00000000000E+00 0.  1.
          3    1    3    3  501    0  0.40979424089E+02  0.18315221821E+03 -0.46116937240E+03  0.49789681488E+03  0.00000000000E+00 0.  1.
         21    1    1    2  502  501  0.10669765590E+02 -0.53858703870E+02 -0.11857381445E+03  0.13066886911E+03  0.00000000000E+00 0.  1.
<mgrwt>
<rscale>  1 0.30000000E+03</rscale>
<asrwt>0</asrwt>
<pdfrwt beam="1">  1        1 0.13328640E+00 0.30000000E+03</pdfrwt>
<pdfrwt beam="2">0</pdfrwt>
<totfact> 0.21961909E+01</totfact>
</mgrwt>
</event>
<event>
 6    1  0.1940992E-004  0.3000000E+03  0.7818608E-02  0.1093470E+00
          1   -1    0    0  502    0  0.00000000000E+00  0.00000000000E+00  0.33580098065E+02  0.33580098065E+02  0.00000000000E+00 0.  1.
         13   -1    0    0    0    0 -0.00000000000E+00 -0.00000000000E+00 -0.10000000000E+04  0.10000000000E+04  0.00000000000E+00 0.  1.
    9000005    2    1    2  501    0 -0.12141184440E+02  0.10809104424E+02 -0.96360808309E+03  0.10170830855E+04  0.32504341240E+03 0.  0.
         13    1    3    3    0    0 -0.94152520592E+02 -0.65087000871E+02 -0.85021479608E+03  0.85788473252E+03  0.00000000000E+00 0.  1.
          3    1    3    3  501    0  0.82011336151E+02  0.75896105295E+02 -0.11339328700E+03  0.15919835299E+03  0.00000000000E+00 0.  1.
         21    1    1    2  502  501  0.12141184440E+02 -0.10809104424E+02 -0.28118188489E+01  0.16497012557E+02  0.00000000000E+00 0.  1.
<mgrwt>
<rscale>  1 0.30000000E+03</rscale>
<asrwt>0</asrwt>
<pdfrwt beam="1">  1        1 0.12210971E+00 0.30000000E+03</pdfrwt>
<pdfrwt beam="2">0</pdfrwt>
<totfact> 0.25294856E+01</totfact>
</mgrwt>
</event>
<event>
 6    1  0.1940992E-004  0.3000000E+03  0.7818608E-02  0.1093470E+00
          1   -1    0    0  502    0  0.00000000000E+00  0.00000000000E+00  0.40359885529E+02  0.40359885529E+02  0.00000000000E+00 0.  1.
         13   -1    0    0    0    0 -0.00000000000E+00 -0.00000000000E+00 -0.10000000000E+04  0.10000000000E+04  0.00000000000E+00 0.  1.
    9000005    2    1    2  501    0 -0.30456667291E+02 -0.10997111337E+02 -0.95484107105E+03  0.10076249522E+04  0.32021559668E+03 0.  0.
         13    1    3    3    0    0  0.94690567156E+02 -0.11587688789E+03 -0.57543159772E+03  0.59457150984E+03  0.00000000000E+00 0.  1.
          1    1    3    3  501    0 -0.12514723445E+03  0.10487977656E+03 -0.37940947333E+03  0.41305344240E+03  0.00000000000E+00 0.  1.
         21    1    1    2  502  501  0.30456667291E+02  0.10997111337E+02 -0.47990434196E+01  0.32734933297E+02  0.00000000000E+00 0.  1.
<mgrwt>
<rscale>  1 0.30000000E+03</rscale>
<asrwt>0</asrwt>
<pdfrwt beam="1">  1        1 0.14676353E+00 0.30000000E+03</pdfrwt>
<pdfrwt beam="2">0</pdfrwt>
<totfact> 0.18662069E+01</totfact>
</mgrwt>
</event>
<event>
 6    1  0.1940992E-004  0.3000000E+03  0.7818608E-02  0.1093470E+00
          1   -1    0    0  502    0  0.00000000000E+00  0.00000000000E+00  0.31683720238E+02  0.31683720238E+02  0.00000000000E+00 0.  1.
         13   -1    0    0    0    0 -0.00000000000E+00 -0.00000000000E+00 -0.10000000000E+04  0.10000000000E+04  0.00000000000E+00 0.  1.
    9000005    2    1    2  501    0 -0.11464683268E+02 -0.91592496430E+00 -0.96460970313E+03  0.10195999877E+04  0.33012115614E+03 0.  0.
         13    1    3    3    0    0 -0.11170372596E+03 -0.11548146750E+03 -0.33062618677E+03  0.36759674523E+03  0.00000000000E+00 0.  1.
          1    1    3    3  501    0  0.10023904269E+03  0.11456554253E+03 -0.63398351636E+03  0.65200324250E+03  0.00000000000E+00 0.  1.
         21    1    1    2  502  501  0.11464683268E+02  0.91592496430E+00 -0.37065766367E+01  0.12083732509E+02  0.00000000000E+00 0. -1.
<mgrwt>
<rscale>  1 0.30000000E+03</rscale>
<asrwt>0</asrwt>
<pdfrwt beam="1">  1        1 0.11521377E+00 0.30000000E+03</pdfrwt>
<pdfrwt beam="2">0</pdfrwt>
<totfact> 0.27687096E+01</totfact>
</mgrwt>
</event>
<event>
 6    1  0.1940992E-004  0.3000000E+03  0.7818608E-02  0.1093470E+00
          1   -1    0    0  502    0  0.00000000000E+00  0.00000000000E+00  0.36462232131E+02  0.36462232131E+02  0.00000000000E+00 0.  1.
         13   -1    0    0    0    0 -0.00000000000E+00 -0.00000000000E+00 -0.10000000000E+04  0.10000000000E+04  0.00000000000E+00 0.  1.
    9000005    2    1    2  501    0  0.41178230075E+02 -0.16082432027E+02 -0.92671382947E+03  0.97892708035E+03  0.31232261469E+03 0.  0.
         13    1    3    3    0    0 -0.98242468776E+02  0.53256425737E+02 -0.66555458231E+03  0.67487089994E+03  0.00000000000E+00 0.  1.
          1    1    3    3  501    0  0.13942069885E+03 -0.69338857764E+02 -0.26115924717E+03  0.30405618041E+03  0.00000000000E+00 0.  1.
         21    1    1    2  502  501 -0.41178230075E+02  0.16082432027E+02 -0.36823938395E+02  0.57535151785E+02  0.00000000000E+00 0. -1.
<mgrwt>
<rscale>  1 0.30000000E+03</rscale>
<asrwt>0</asrwt>
<pdfrwt beam="1">  1        1 0.13259021E+00 0.30000000E+03</pdfrwt>
<pdfrwt beam="2">0</pdfrwt>
<totfact> 0.22152257E+01</totfact>
</mgrwt>
</event>
<event>
 6    1  0.1940992E-004  0.3000000E+03  0.7818608E-02  0.1093470E+00
          1   -1    0    0  502    0  0.00000000000E+00  0.00000000000E+00  0.25349063103E+02  0.25349063103E+02  0.00000000000E+00 0.  1.
         13   -1    0    0    0    0 -0.00000000000E+00 -0.00000000000E+00 -0.10000000000E+04  0.10000000000E+04  0.00000000000E+00 0.  1.
    9000005    2    1    2  501    0 -0.58401865665E+01  0.80577061789E+01 -0.96874309385E+03  0.10137759470E+04  0.29862929248E+03 0.  0.
         13    1    3    3    0    0 -0.66126699815E+02 -0.29531566097E+02 -0.40812284735E+02  0.83129395582E+02  0.00000000000E+00 0.  1.
          3    1    3    3  501    0  0.60286513249E+02  0.37589272276E+02 -0.92793080911E+03  0.93064655137E+03  0.00000000000E+00 0.  1.
         21    1    1    2  502  501  0.58401865665E+01 -0.80577061789E+01 -0.59078430482E+01  0.11573116152E+02  0.00000000000E+00 0.  1.
<mgrwt>
<rscale>  1 0.30000000E+03</rscale>
<asrwt>0</asrwt>
<pdfrwt beam="1">  1        1 0.92178606E-01 0.30000000E+03</pdfrwt>
<pdfrwt beam="2">0</pdfrwt>
<totfact> 0.38499448E+01</totfact>
</mgrwt>
</event>
<event>
 6    1  0.1940992E-004  0.3000000E+03  0.7818608E-02  0.1093470E+00
          1   -1    0    0  502    0  0.00000000000E+00  0.00000000000E+00  0.37098212082E+02  0.37098212082E+02  0.00000000000E+00 0.  1.
         13   -1    0    0    0    0 -0.00000000000E+00 -0.00000000000E+00 -0.10000000000E+04  0.10000000000E+04  0.00000000000E+00 0.  1.
    9000005    2    1    2  501    0 -0.10564225681E+02  0.29562809365E+01 -0.97203152643E+03  0.10228260508E+04  0.31813126136E+03 0.  0.
         13    1    3    3    0    0 -0.11482353812E+03 -0.45813773125E+02 -0.83394457742E+03  0.84305806735E+03  0.00000000000E+00 0.  1.
          1    1    3    3  501    0  0.10425931244E+03  0.48770054062E+02 -0.13808694901E+03  0.17976798350E+03  0.00000000000E+00 0.  1.
         21    1    1    2  502  501  0.10564225681E+02 -0.29562809365E+01  0.91297385091E+01  0.14272161240E+02  0.00000000000E+00 0.  1.
<mgrwt>
<rscale>  1 0.30000000E+03</rscale>
<asrwt>0</asrwt>
<pdfrwt beam="1">  1        1 0.13490287E+00 0.30000000E+03</pdfrwt>
<pdfrwt beam="2">0</pdfrwt>
<totfact> 0.21528205E+01</totfact>
</mgrwt>
</event>
<event>
 6    1  0.1940992E-004  0.3000000E+03  0.7818608E-02  0.1093470E+00
          1   -1    0    0  502    0  0.00000000000E+00  0.00000000000E+00  0.29332178951E+02  0.29332178951E+02  0.00000000000E+00 0.  1.
         13   -1    0    0    0    0 -0.00000000000E+00 -0.00000000000E+00 -0.10000000000E+04  0.10000000000E+04  0.00000000000E+00 0.  1.
    9000005    2    1    2  501    0  0.30812337030E+02 -0.18853756952E+02 -0.86978633331E+03  0.92217836972E+03  0.30426931443E+03 0.  0.
         13    1    3    3    0    0 -0.15058728141E+02 -0.81905789781E+02 -0.46841977986E+02  0.95548388759E+02  0.00000000000E+00 0.  1.
          1    1    3    3  501    0  0.45871065171E+02  0.63052032829E+02 -0.82294435532E+03  0.82662998096E+03  0.00000000000E+00 0.  1.
         21    1    1    2  502  501 -0.30812337030E+02  0.18853756952E+02 -0.10088148774E+03  0.10715380923E+03  0.00000000000E+00 0. -1.
<mgrwt>
<rscale>  1 0.30000000E+03</rscale>
<asrwt>0</asrwt>
<pdfrwt beam="1">  1        1 0.10666269E+00 0.30000000E+03</pdfrwt>
<pdfrwt beam="2">0</pdfrwt>
<totfact> 0.31116128E+01</totfact>
</mgrwt>
</event>
<event>
 6    1  0.1940992E-004  0.3000000E+03  0.7818608E-02  0.1093470E+00
          1   -1    0    0  502    0  0.00000000000E+00  0.00000000000E+00  0.32146730681E+02  0.32146730681E+02  0.00000000000E+00 0.  1.
         13   -1    0    0    0    0 -0.00000000000E+00 -0.00000000000E+00 -0.10000000000E+04  0.10000000000E+04  0.00000000000E+00 0.  1.
    9000005    2    1    2  501    0  0.79752678946E+01 -0.22157868404E+02 -0.94479323886E+03  0.99918704265E+03  0.32432376721E+03 0.  0.
         13    1    3    3    0    0  0.15957001489E+03  0.23864950315E+02 -0.56728033779E+03  0.58977886292E+03  0.00000000000E+00 0.  1.
          3    1    3    3  501    0 -0.15159474699E+03 -0.46022818720E+02 -0.37751290107E+03  0.40940817973E+03  0.00000000000E+00 0.  1.
         21    1    1    2  502  501 -0.79752678946E+01  0.22157868404E+02 -0.23060030463E+02  0.32959688032E+02  0.00000000000E+00 0.  1.
<mgrwt>
<rscale>  1 0.30000000E+03</rscale>
<asrwt>0</asrwt>
<pdfrwt beam="1">  1        1 0.11689745E+00 0.30000000E+03</pdfrwt>
<pdfrwt beam="2">0</pdfrwt>
<totfact> 0.27075443E+01</totfact>
</mgrwt>
</event>
<event>
 6    1  0.1940992E-004  0.3000000E+03  0.7818608E-02  0.1093470E+00
          1   -1    0    0  502    0  0.00000000000E+00  0.00000000000E+00  0.50998398254E+02  0.50998398254E+02  0.00000000000E+00 0.  1.
         13   -1    0    0    0    0 -0.00000000000E+00 -0.00000000000E+00 -0.10000000000E+04  0.10000000000E+04  0.00000000000E+00 0.  1.
    9000005    2    1    2  501    0  0.29460341630E+02  0.20224905441E+02 -0.95634701111E+03  0.10145167101E+04  0.33670104093E+03 0.  0.
         13    1    3    3    0    0  0.12123130145E+03 -0.10161949922E+03 -0.68698545290E+03  0.70496281006E+03  0.00000000000E+00 0.  1.
          1    1    3    3  501    0 -0.91770959818E+02  0.12184440466E+03 -0.26936155821E+03  0.30955390008E+03  0.00000000000E+00 0.  1.
         21    1    1    2  502  501 -0.29460341630E+02 -0.20224905441E+02  0.73454093632E+01  0.36481688115E+02  0.00000000000E+00 0. -1.
<mgrwt>
<rscale>  1 0.30000000E+03</rscale>
<asrwt>0</asrwt>
<pdfrwt beam="1">  1        1 0.18544911E+00 0.30000000E+03</pdfrwt>
<pdfrwt beam="2">0</pdfrwt>
<totfact> 0.12024428E+01</totfact>
</mgrwt>
</event>
<event>
 6    1  0.1940992E-004  0.3000000E+03  0.7818608E-02  0.1093470E+00
          1   -1    0    0  502    0  0.00000000000E+00  0.00000000000E+00  0.39625023541E+02  0.39625023541E+02  0.00000000000E+00 0.  1.
         13   -1    0    0    0    0 -0.00000000000E+00 -0.00000000000E+00 -0.10000000000E+04  0.10000000000E+04  0.00000000000E+00 0.  1.
    9000005    2    1    2  501    0  0.10222724214E+02 -0.50691643455E+02 -0.87679901647E+03  0.94134436474E+03  0.33864221671E+03 0.  0.
         13    1    3    3    0    0 -0.10743821524E+03  0.34294063311E+01 -0.75804839354E+03  0.76563182919E+03  0.00000000000E+00 0.  1.
          1    1    3    3  501    0  0.11766093945E+03 -0.54121049786E+02 -0.11875062294E+03  0.17571253555E+03  0.00000000000E+00 0.  1.
         21    1    1    2  502  501 -0.10222724214E+02  0.50691643455E+02 -0.83575959986E+02  0.98280658800E+02  0.00000000000E+00 0. -1.
<mgrwt>
<rscale>  1 0.30000000E+03</rscale>
<asrwt>0</asrwt>
<pdfrwt beam="1">  1        1 0.14409130E+00 0.30000000E+03</pdfrwt>
<pdfrwt beam="2">0</pdfrwt>
<totfact> 0.19263367E+01</totfact>
</mgrwt>
</event>
<event>
 6    1  0.1940992E-004  0.3000000E+03  0.7818608E-02  0.1093470E+00
          1   -1    0    0  502    0  0.00000000000E+00  0.00000000000E+00  0.32198627758E+02  0.32198627758E+02  0.00000000000E+00 0.  1.
         13   -1    0    0    0    0 -0.00000000000E+00 -0.00000000000E+00 -0.10000000000E+04  0.10000000000E+04  0.00000000000E+00 0.  1.
    9000005    2    1    2  501    0  0.30035724406E+00  0.29498677766E+02 -0.91580659349E+03  0.97241803541E+03  0.32561458306E+03 0.  0.
         13    1    3    3    0    0 -0.33471480119E+02 -0.99721247600E+02 -0.75981037528E+03  0.76705702107E+03  0.00000000000E+00 0.  1.
          1    1    3    3  501    0  0.33771837363E+02  0.12921992537E+03 -0.15599621821E+03  0.20536101433E+03  0.00000000000E+00 0.  1.
         21    1    1    2  502  501 -0.30035724406E+00 -0.29498677766E+02 -0.51994778754E+02  0.59780592353E+02  0.00000000000E+00 0. -1.
<mgrwt>
<rscale>  1 0.30000000E+03</rscale>
<asrwt>0</asrwt>
<pdfrwt beam="1">  1        1 0.11708617E+00 0.30000000E+03</pdfrwt>
<pdfrwt beam="2">0</pdfrwt>
<totfact> 0.27008056E+01</totfact>
</mgrwt>
</event>
<event>
 6    1  0.1940992E-004  0.3000000E+03  0.7818608E-02  0.1093470E+00
          1   -1    0    0  502    0  0.00000000000E+00  0.00000000000E+00  0.32800456819E+02  0.32800456819E+02  0.00000000000E+00 0.  1.
         13   -1    0    0    0    0 -0.00000000000E+00 -0.00000000000E+00 -0.10000000000E+04  0.10000000000E+04  0.00000000000E+00 0.  1.
    9000005    2    1    2  501    0 -0.27889855855E+02 -0.89713278092E+01 -0.92051699592E+03  0.97768613018E+03  0.32811629125E+03 0.  0.
         13    1    3    3    0    0 -0.16018484785E+03  0.67435484166E+02 -0.42538765584E+03  0.45952300023E+03  0.00000000000E+00 0.  1.
          3    1    3    3  501    0  0.13229499199E+03 -0.76406811975E+02 -0.49512934008E+03  0.51816312995E+03  0.00000000000E+00 0.  1.
         21    1    1    2  502  501  0.27889855855E+02  0.89713278092E+01 -0.46682547260E+02  0.55114326640E+02  0.00000000000E+00 0. -1.
<mgrwt>
<rscale>  1 0.30000000E+03</rscale>
<asrwt>0</asrwt>
<pdfrwt beam="1">  1        1 0.11927464E+00 0.30000000E+03</pdfrwt>
<pdfrwt beam="2">0</pdfrwt>
<totfact> 0.26243083E+01</totfact>
</mgrwt>
</event>
<event>
 6    1  0.1940992E-004  0.3000000E+03  0.7818608E-02  0.1093470E+00
          1   -1    0    0  502    0  0.00000000000E+00  0.00000000000E+00  0.50117006916E+02  0.50117006916E+02  0.00000000000E+00 0.  1.
         13   -1    0    0    0    0 -0.00000000000E+00 -0.00000000000E+00 -0.10000000000E+04  0.10000000000E+04  0.00000000000E+00 0.  1.
    9000005    2    1    2  501    0  0.42698424559E+02  0.66764287888E+00 -0.95282430648E+03  0.10073121879E+04  0.32400630187E+03 0.  0.
         13    1    3    3    0    0  0.16571510786E+03  0.23332311496E+02 -0.75449280893E+03  0.77282940709E+03  0.00000000000E+00 0.  1.
          1    1    3    3  501    0 -0.12301668330E+03 -0.22664668617E+02 -0.19833149755E+03  0.23448278081E+03  0.00000000000E+00 0.  1.
         21    1    1    2  502  501 -0.42698424559E+02 -0.66764287888E+00  0.29413133990E+01  0.42804819020E+02  0.00000000000E+00 0.  1.
<mgrwt>
<rscale>  1 0.30000000E+03</rscale>
<asrwt>0</asrwt>
<pdfrwt beam="1">  1        1 0.18224405E+00 0.30000000E+03</pdfrwt>
<pdfrwt beam="2">0</pdfrwt>
<totfact> 0.12459513E+01</totfact>
</mgrwt>
</event>
<event>
 6    1  0.1940992E-004  0.3000000E+03  0.7818608E-02  0.1093470E+00
          1   -1    0    0  502    0  0.00000000000E+00  0.00000000000E+00  0.11115624032E+03  0.11115624032E+03  0.00000000000E+00 0.  1.
         13   -1    0    0    0    0 -0.00000000000E+00 -0.00000000000E+00 -0.10000000000E+04  0.10000000000E+04  0.00000000000E+00 0.  1.
    9000005    2    1    2  501    0  0.21137591640E+03  0.20797333677E+03 -0.55100580138E+03  0.66163741657E+03  0.21499765349E+03 0.  0.
         13    1    3    3    0    0  0.19452708880E+03  0.13590166192E+03 -0.22386882321E+03  0.32623197267E+03  0.00000000000E+00 0.  1.
          3    1    3    3  501    0  0.16848827602E+02  0.72071674859E+02 -0.32713697817E+03  0.33540544390E+03  0.00000000000E+00 0.  1.
         21    1    1    2  502  501 -0.21137591640E+03 -0.20797333677E+03 -0.33783795829E+03  0.44951882375E+03  0.00000000000E+00 0.  1.
<mgrwt>
<rscale>  1 0.30000000E+03</rscale>
<asrwt>0</asrwt>
<pdfrwt beam="1">  1        1 0.40420536E+00 0.30000000E+03</pdfrwt>
<pdfrwt beam="2">0</pdfrwt>
<totfact> 0.99618312E-01</totfact>
</mgrwt>
</event>
<event>
 6    1  0.1940992E-004  0.3000000E+03  0.7818608E-02  0.1093470E+00
          1   -1    0    0  502    0  0.00000000000E+00  0.00000000000E+00  0.33113971720E+02  0.33113971720E+02  0.00000000000E+00 0.  1.
         13   -1    0    0    0    0 -0.00000000000E+00 -0.00000000000E+00 -0.10000000000E+04  0.10000000000E+04  0.00000000000E+00 0.  1.
    9000005    2    1    2  501    0 -0.20822856170E+02  0.29550178552E+01 -0.95421928604E+03  0.10085626005E+04  0.32591678358E+03 0.  0.
         13    1    3    3    0    0 -0.16910092879E+03 -0.16867348611E+02 -0.61025022591E+03  0.63347057531E+03  0.00000000000E+00 0.  1.
          1    1    3    3  501    0  0.14827807262E+03  0.19822366467E+02 -0.34396906013E+03  0.37509202519E+03  0.00000000000E+00 0.  1.
         21    1    1    2  502  501  0.20822856170E+02 -0.29550178552E+01 -0.12666742245E+02  0.24551371219E+02  0.00000000000E+00 0.  1.
<mgrwt>
<rscale>  1 0.30000000E+03</rscale>
<asrwt>0</asrwt>
<pdfrwt beam="1">  1        1 0.12041470E+00 0.30000000E+03</pdfrwt>
<pdfrwt beam="2">0</pdfrwt>
<totfact> 0.25856173E+01</totfact>
</mgrwt>
</event>
<event>
 6    1  0.1940992E-004  0.3000000E+03  0.7818608E-02  0.1093470E+00
          1   -1    0    0  502    0  0.00000000000E+00  0.00000000000E+00  0.32678307462E+02  0.32678307462E+02  0.00000000000E+00 0.  1.
         13   -1    0    0    0    0 -0.00000000000E+00 -0.00000000000E+00 -0.10000000000E+04  0.10000000000E+04  0.00000000000E+00 0.  1.
    9000005    2    1    2  501    0 -0.16704472520E+02  0.25615181939E+02 -0.94089312033E+03  0.99225991589E+03  0.31363147141E+03 0.  0.
         13    1    3    3    0    0 -0.90010064869E+02  0.14667874538E+03 -0.56393386931E+03  0.58960823865E+03  0.00000000000E+00 0.  1.
          1    1    3    3  501    0  0.73305592349E+02 -0.12106356344E+03 -0.37695925102E+03  0.40265167724E+03  0.00000000000E+00 0.  1.
         21    1    1    2  502  501  0.16704472520E+02 -0.25615181939E+02 -0.26428572212E+02  0.40418391570E+02  0.00000000000E+00 0. -1.
<mgrwt>
<rscale>  1 0.30000000E+03</rscale>
<asrwt>0</asrwt>
<pdfrwt beam="1">  1        1 0.11883046E+00 0.30000000E+03</pdfrwt>
<pdfrwt beam="2">0</pdfrwt>
<totfact> 0.26395938E+01</totfact>
</mgrwt>
</event>
<event>
 6    1  0.1940992E-004  0.3000000E+03  0.7818608E-02  0.1093470E+00
          1   -1    0    0  502    0  0.00000000000E+00  0.00000000000E+00  0.66407677478E+02  0.66407677478E+02  0.00000000000E+00 0.  1.
         13   -1    0    0    0    0 -0.00000000000E+00 -0.00000000000E+00 -0.10000000000E+04  0.10000000000E+04  0.00000000000E+00 0.  1.
    9000005    2    1    2  501    0  0.23443971985E+02 -0.48080779057E+02 -0.95354313501E+03  0.10093163817E+04  0.32651748322E+03 0.  0.
         13    1    3    3    0    0  0.15071701180E+03  0.15751904125E+02 -0.72014450334E+03  0.73591565129E+03  0.00000000000E+00 0.  1.
          1    1    3    3  501    0 -0.12727303981E+03 -0.63832683182E+02 -0.23339863168E+03  0.27340073038E+03  0.00000000000E+00 0.  1.
         21    1    1    2  502  501 -0.23443971985E+02  0.48080779057E+02  0.19950812493E+02  0.57091295802E+02  0.00000000000E+00 0.  1.
<mgrwt>
<rscale>  1 0.30000000E+03</rscale>
<asrwt>0</asrwt>
<pdfrwt beam="1">  1        1 0.24148297E+00 0.30000000E+03</pdfrwt>
<pdfrwt beam="2">0</pdfrwt>
<totfact> 0.65383456E+00</totfact>
</mgrwt>
</event>
<event>
 6    1  0.1940992E-004  0.3000000E+03  0.7818608E-02  0.1093470E+00
          1   -1    0    0  502    0  0.00000000000E+00  0.00000000000E+00  0.90789639993E+02  0.90789639993E+02  0.00000000000E+00 0.  1.
         13   -1    0    0    0    0 -0.00000000000E+00 -0.00000000000E+00 -0.10000000000E+04  0.10000000000E+04  0.00000000000E+00 0.  1.
    9000005    2    1    2  501    0  0.57381768386E+02 -0.49922137550E+02 -0.95035080325E+03  0.10043175449E+04  0.31575654320E+03 0.  0.
         13    1    3    3    0    0  0.14351935356E+03 -0.84386841297E+02 -0.26670376598E+03  0.31440394816E+03  0.00000000000E+00 0.  1.
          1    1    3    3  501    0 -0.86137585176E+02  0.34464703747E+02 -0.68364703727E+03  0.68991359673E+03  0.00000000000E+00 0.  1.
         21    1    1    2  502  501 -0.57381768386E+02  0.49922137550E+02  0.41140443244E+02  0.86472095100E+02  0.00000000000E+00 0. -1.
<mgrwt>
<rscale>  1 0.30000000E+03</rscale>
<asrwt>0</asrwt>
<pdfrwt beam="1">  1        1 0.33014484E+00 0.30000000E+03</pdfrwt>
<pdfrwt beam="2">0</pdfrwt>
<totfact> 0.24821752E+00</totfact>
</mgrwt>
</event>
<event>
 6    1  0.1940992E-004  0.3000000E+03  0.7818608E-02  0.1093470E+00
          1   -1    0    0  502    0  0.00000000000E+00  0.00000000000E+00  0.34890553078E+02  0.34890553078E+02  0.00000000000E+00 0.  1.
         13   -1    0    0    0    0 -0.00000000000E+00 -0.00000000000E+00 -0.10000000000E+04  0.10000000000E+04  0.00000000000E+00 0.  1.
    9000005    2    1    2  501    0  0.61614151534E-01  0.12180668021E+02 -0.95994289880E+03  0.10216593139E+04  0.34949822936E+03 0.  0.
         13    1    3    3    0    0 -0.12403795006E+03  0.75984405442E+02 -0.78258156030E+03  0.79598551585E+03  0.00000000000E+00 0.  1.
          3    1    3    3  501    0  0.12409956421E+03 -0.63803737421E+02 -0.17736133850E+03  0.22567379808E+03  0.00000000000E+00 0.  1.
         21    1    1    2  502  501 -0.61614151534E-01 -0.12180668021E+02 -0.51665481256E+01  0.13231239144E+02  0.00000000000E+00 0.  1.
<mgrwt>
<rscale>  1 0.30000000E+03</rscale>
<asrwt>0</asrwt>
<pdfrwt beam="1">  1        1 0.12687501E+00 0.30000000E+03</pdfrwt>
<pdfrwt beam="2">0</pdfrwt>
<totfact> 0.23799369E+01</totfact>
</mgrwt>
</event>
<event>
 6    1  0.1940992E-004  0.3000000E+03  0.7818608E-02  0.1093470E+00
          1   -1    0    0  502    0  0.00000000000E+00  0.00000000000E+00  0.46040324028E+02  0.46040324028E+02  0.00000000000E+00 0.  1.
         13   -1    0    0    0    0 -0.00000000000E+00 -0.00000000000E+00 -0.10000000000E+04  0.10000000000E+04  0.00000000000E+00 0.  1.
    9000005    2    1    2  501    0  0.23074127191E+02  0.27884319889E+02 -0.95641979567E+03  0.10097635707E+04  0.32182866960E+03 0.  0.
         13    1    3    3    0    0  0.14191597944E+03 -0.23015345518E+02 -0.76745501586E+03  0.78080538722E+03  0.00000000000E+00 0.  1.
          1    1    3    3  501    0 -0.11884185225E+03  0.50899665407E+02 -0.18896477981E+03  0.22895818350E+03  0.00000000000E+00 0.  1.
         21    1    1    2  502  501 -0.23074127191E+02 -0.27884319889E+02  0.24601196970E+01  0.36276753304E+02  0.00000000000E+00 0.  1.
<mgrwt>
<rscale>  1 0.30000000E+03</rscale>
<asrwt>0</asrwt>
<pdfrwt beam="1">  1        1 0.16741971E+00 0.30000000E+03</pdfrwt>
<pdfrwt beam="2">0</pdfrwt>
<totfact> 0.14708939E+01</totfact>
</mgrwt>
</event>
<event>
 6    1  0.1940992E-004  0.3000000E+03  0.7818608E-02  0.1093470E+00
          1   -1    0    0  502    0  0.00000000000E+00  0.00000000000E+00  0.36086929249E+02  0.36086929249E+02  0.00000000000E+00 0.  1.
         13   -1    0    0    0    0 -0.00000000000E+00 -0.00000000000E+00 -0.10000000000E+04  0.10000000000E+04  0.00000000000E+00 0.  1.
    9000005    2    1    2  501    0  0.39730858229E+02  0.20433665626E+01 -0.92772238568E+03  0.98230512816E+03  0.32042444269E+03 0.  0.
         13    1    3    3    0    0  0.17636663773E+02 -0.10846468317E+03 -0.81686847320E+03  0.82422675394E+03  0.00000000000E+00 0.  1.
          3    1    3    3  501    0  0.22094194456E+02  0.11050804973E+03 -0.11085391248E+03  0.15807837422E+03  0.00000000000E+00 0.  1.
         21    1    1    2  502  501 -0.39730858229E+02 -0.20433665626E+01 -0.36190685074E+02  0.53781801092E+02  0.00000000000E+00 0.  1.
<mgrwt>
<rscale>  1 0.30000000E+03</rscale>
<asrwt>0</asrwt>
<pdfrwt beam="1">  1        1 0.13122547E+00 0.30000000E+03</pdfrwt>
<pdfrwt beam="2">0</pdfrwt>
<totfact> 0.22531742E+01</totfact>
</mgrwt>
</event>
<event>
 6    1  0.1940992E-004  0.3000000E+03  0.7818608E-02  0.1093470E+00
          1   -1    0    0  502    0  0.00000000000E+00  0.00000000000E+00  0.44891801752E+02  0.44891801752E+02  0.00000000000E+00 0.  1.
         13   -1    0    0    0    0 -0.00000000000E+00 -0.00000000000E+00 -0.10000000000E+04  0.10000000000E+04  0.00000000000E+00 0.  1.
    9000005    2    1    2  501    0  0.62586703823E+02  0.37390319678E+01 -0.91532282921E+03  0.97063581583E+03  0.31683896453E+03 0.  0.
         13    1    3    3    0    0 -0.11537014739E+03  0.66419483765E+02 -0.42018314113E+03  0.44076716169E+03  0.00000000000E+00 0.  1.
          1    1    3    3  501    0  0.17795685121E+03 -0.62680451797E+02 -0.49513968808E+03  0.52986865415E+03  0.00000000000E+00 0.  1.
         21    1    1    2  502  501 -0.62586703823E+02 -0.37390319678E+01 -0.39785369034E+02  0.74255985918E+02  0.00000000000E+00 0. -1.
<mgrwt>
<rscale>  1 0.30000000E+03</rscale>
<asrwt>0</asrwt>
<pdfrwt beam="1">  1        1 0.16324326E+00 0.30000000E+03</pdfrwt>
<pdfrwt beam="2">0</pdfrwt>
<totfact> 0.15421914E+01</totfact>
</mgrwt>
</event>
<event>
 6    1  0.1940992E-004  0.3000000E+03  0.7818608E-02  0.1093470E+00
          1   -1    0    0  502    0  0.00000000000E+00  0.00000000000E+00  0.31115829239E+02  0.31115829239E+02  0.00000000000E+00 0.  1.
         13   -1    0    0    0    0 -0.00000000000E+00 -0.00000000000E+00 -0.10000000000E+04  0.10000000000E+04  0.00000000000E+00 0.  1.
    9000005    2    1    2  501    0 -0.29239875963E+01 -0.17150119099E+02 -0.95685294005E+03  0.10099633636E+04  0.32273173181E+03 0.  0.
         13    1    3    3    0    0  0.99510358298E+02  0.11109883808E+03 -0.58091479884E+03  0.59975600601E+03  0.00000000000E+00 0.  1.
          3    1    3    3  501    0 -0.10243434589E+03 -0.12824895718E+03 -0.37593814121E+03  0.41020735763E+03  0.00000000000E+00 0.  1.
         21    1    1    2  502  501  0.29239875963E+01  0.17150119099E+02 -0.12031230709E+02  0.21152465599E+02  0.00000000000E+00 0.  1.
<mgrwt>
<rscale>  1 0.30000000E+03</rscale>
<asrwt>0</asrwt>
<pdfrwt beam="1">  1        1 0.11314871E+00 0.30000000E+03</pdfrwt>
<pdfrwt beam="2">0</pdfrwt>
<totfact> 0.28464069E+01</totfact>
</mgrwt>
</event>
<event>
 6    1  0.1940992E-004  0.3000000E+03  0.7818608E-02  0.1093470E+00
          1   -1    0    0  502    0  0.00000000000E+00  0.00000000000E+00  0.29608675825E+02  0.29608675825E+02  0.00000000000E+00 0.  1.
         13   -1    0    0    0    0 -0.00000000000E+00 -0.00000000000E+00 -0.10000000000E+04  0.10000000000E+04  0.00000000000E+00 0.  1.
    9000005    2    1    2  501    0 -0.21060367074E+02  0.21782830673E+02 -0.94290664072E+03  0.98870099198E+03  0.29586937598E+03 0.  0.
         13    1    3    3    0    0  0.11500563804E+03  0.80800523667E+02 -0.34186173617E+03  0.36962747201E+03  0.00000000000E+00 0.  1.
          3    1    3    3  501    0 -0.13606600512E+03 -0.59017692995E+02 -0.60104490455E+03  0.61907351997E+03  0.00000000000E+00 0.  1.
         21    1    1    2  502  501  0.21060367074E+02 -0.21782830673E+02 -0.27484683451E+02  0.40907683848E+02  0.00000000000E+00 0.  1.
<mgrwt>
<rscale>  1 0.30000000E+03</rscale>
<asrwt>0</asrwt>
<pdfrwt beam="1">  1        1 0.10766814E+00 0.30000000E+03</pdfrwt>
<pdfrwt beam="2">0</pdfrwt>
<totfact> 0.30682542E+01</totfact>
</mgrwt>
</event>
<event>
 6    1  0.1940992E-004  0.3000000E+03  0.7818608E-02  0.1093470E+00
          3   -1    0    0  502    0  0.00000000000E+00  0.00000000000E+00  0.38807189979E+02  0.38807189979E+02  0.00000000000E+00 0.  1.
         13   -1    0    0    0    0 -0.00000000000E+00 -0.00000000000E+00 -0.10000000000E+04  0.10000000000E+04  0.00000000000E+00 0.  1.
    9000005    2    1    2  501    0 -0.51089073542E+01  0.65083158366E+02 -0.87021980944E+03  0.92683395536E+03  0.31221266090E+03 0.  0.
         13    1    3    3    0    0  0.47039239119E+02  0.16287397741E+03 -0.72272483040E+03  0.74234210645E+03  0.00000000000E+00 0.  1.
          3    1    3    3  501    0 -0.52148146474E+02 -0.97790819046E+02 -0.14749497904E+03  0.18449184890E+03  0.00000000000E+00 0.  1.
         21    1    1    2  502  501  0.51089073542E+01 -0.65083158366E+02 -0.90973000580E+02  0.11197323462E+03  0.00000000000E+00 0.  1.
<mgrwt>
<rscale>  1 0.30000000E+03</rscale>
<asrwt>0</asrwt>
<pdfrwt beam="1">  1        3 0.14111735E+00 0.30000000E+03</pdfrwt>
<pdfrwt beam="2">0</pdfrwt>
<totfact> 0.12964200E+00</totfact>
</mgrwt>
</event>
<event>
 6    1  0.1940992E-004  0.3000000E+03  0.7818608E-02  0.1093470E+00
          1   -1    0    0  502    0  0.00000000000E+00  0.00000000000E+00  0.32599799054E+02  0.32599799054E+02  0.00000000000E+00 0.  1.
         13   -1    0    0    0    0 -0.00000000000E+00 -0.00000000000E+00 -0.10000000000E+04  0.10000000000E+04  0.00000000000E+00 0.  1.
    9000005    2    1    2  501    0 -0.10713817174E+02 -0.70930489277E+01 -0.96727013590E+03  0.10197501244E+04  0.32266655113E+03 0.  0.
         13    1    3    3    0    0  0.63405741135E+02  0.82655413549E+02 -0.98998364749E+02  0.14371110472E+03  0.00000000000E+00 0.  1.
          3    1    3    3  501    0 -0.74119558309E+02 -0.89748462477E+02 -0.86827177115E+03  0.87603901969E+03  0.00000000000E+00 0.  1.
         21    1    1    2  502  501  0.10713817174E+02  0.70930489277E+01 -0.13006504911E+00  0.12849674643E+02  0.00000000000E+00 0.  1.
<mgrwt>
<rscale>  1 0.30000000E+03</rscale>
<asrwt>0</asrwt>
<pdfrwt beam="1">  1        1 0.11854497E+00 0.30000000E+03</pdfrwt>
<pdfrwt beam="2">0</pdfrwt>
<totfact> 0.26494819E+01</totfact>
</mgrwt>
</event>
<event>
 6    1  0.1940992E-004  0.3000000E+03  0.7818608E-02  0.1093470E+00
          1   -1    0    0  502    0  0.00000000000E+00  0.00000000000E+00  0.40245524682E+02  0.40245524682E+02  0.00000000000E+00 0.  1.
         13   -1    0    0    0    0 -0.00000000000E+00 -0.00000000000E+00 -0.10000000000E+04  0.10000000000E+04  0.00000000000E+00 0.  1.
    9000005    2    1    2  501    0 -0.47006378309E+02  0.35268939659E+02 -0.86661617302E+03  0.93011723104E+03  0.33262738075E+03 0.  0.
         13    1    3    3    0    0  0.11226384531E+03  0.10096084600E+03 -0.27258883964E+03  0.31161023553E+03  0.00000000000E+00 0.  1.
          1    1    3    3  501    0 -0.15927022362E+03 -0.65691906344E+02 -0.59402733338E+03  0.61850699551E+03  0.00000000000E+00 0.  1.
         21    1    1    2  502  501  0.47006378309E+02 -0.35268939659E+02 -0.93138302294E+02  0.11012829364E+03  0.00000000000E+00 0. -1.
<mgrwt>
<rscale>  1 0.30000000E+03</rscale>
<asrwt>0</asrwt>
<pdfrwt beam="1">  1        1 0.14634767E+00 0.30000000E+03</pdfrwt>
<pdfrwt beam="2">0</pdfrwt>
<totfact> 0.18754078E+01</totfact>
</mgrwt>
</event>
<event>
 6    1  0.1940992E-004  0.3000000E+03  0.7818608E-02  0.1093470E+00
          1   -1    0    0  502    0  0.00000000000E+00  0.00000000000E+00  0.30756068013E+02  0.30756068013E+02  0.00000000000E+00 0.  1.
         13   -1    0    0    0    0 -0.00000000000E+00 -0.00000000000E+00 -0.10000000000E+04  0.10000000000E+04  0.00000000000E+00 0.  1.
    9000005    2    1    2  501    0 -0.19893178343E+02  0.22026002860E+02 -0.90890311540E+03  0.96351101248E+03  0.31838296853E+03 0.  0.
         13    1    3    3    0    0  0.14932393603E+02  0.14745067696E+03 -0.24009306822E+03  0.28215130679E+03  0.00000000000E+00 0.  1.
          3    1    3    3  501    0 -0.34825571946E+02 -0.12542467410E+03 -0.66881004718E+03  0.68135970570E+03  0.00000000000E+00 0.  1.
         21    1    1    2  502  501  0.19893178343E+02 -0.22026002860E+02 -0.60340816591E+02  0.67245055531E+02  0.00000000000E+00 0. -1.
<mgrwt>
<rscale>  1 0.30000000E+03</rscale>
<asrwt>0</asrwt>
<pdfrwt beam="1">  1        1 0.11184048E+00 0.30000000E+03</pdfrwt>
<pdfrwt beam="2">0</pdfrwt>
<totfact> 0.28972419E+01</totfact>
</mgrwt>
</event>
<event>
 6    1  0.1940992E-004  0.3000000E+03  0.7818608E-02  0.1093470E+00
          1   -1    0    0  502    0  0.00000000000E+00  0.00000000000E+00  0.67115857420E+02  0.67115857420E+02  0.00000000000E+00 0.  1.
         13   -1    0    0    0    0 -0.00000000000E+00 -0.00000000000E+00 -0.10000000000E+04  0.10000000000E+04  0.00000000000E+00 0.  1.
    9000005    2    1    2  501    0  0.17498631703E+01 -0.16037560251E+02 -0.97205095986E+03  0.10247566207E+04  0.32401049016E+03 0.  0.
         13    1    3    3    0    0 -0.34780870673E+02 -0.10090437816E+03 -0.90331384152E+03  0.90959732782E+03  0.00000000000E+00 0.  1.
          1    1    3    3  501    0  0.36530733844E+02  0.84866817913E+02 -0.68737118346E+02  0.11515929288E+03  0.00000000000E+00 0.  1.
         21    1    1    2  502  501 -0.17498631703E+01  0.16037560251E+02  0.39166817282E+02  0.42359236725E+02  0.00000000000E+00 0.  1.
<mgrwt>
<rscale>  1 0.30000000E+03</rscale>
<asrwt>0</asrwt>
<pdfrwt beam="1">  1        1 0.24405818E+00 0.30000000E+03</pdfrwt>
<pdfrwt beam="2">0</pdfrwt>
<totfact> 0.63592945E+00</totfact>
</mgrwt>
</event>
<event>
 6    1  0.1940992E-004  0.3000000E+03  0.7818608E-02  0.1093470E+00
          1   -1    0    0  502    0  0.00000000000E+00  0.00000000000E+00  0.38549654951E+02  0.38549654951E+02  0.00000000000E+00 0.  1.
         13   -1    0    0    0    0 -0.00000000000E+00 -0.00000000000E+00 -0.10000000000E+04  0.10000000000E+04  0.00000000000E+00 0.  1.
    9000005    2    1    2  501    0 -0.26723795087E+02  0.12721040195E+02 -0.95363629271E+03  0.10079384560E+04  0.32502579314E+03 0.  0.
         13    1    3    3    0    0 -0.61030210838E+02  0.13044341930E+03 -0.21234818029E+03  0.25657732158E+03  0.00000000000E+00 0.  1.
          3    1    3    3  501    0  0.34306415751E+02 -0.11772237910E+03 -0.74128811242E+03  0.75136113442E+03  0.00000000000E+00 0.  1.
         21    1    1    2  502  501  0.26723795087E+02 -0.12721040195E+02 -0.78140523337E+01  0.30611198954E+02  0.00000000000E+00 0.  1.
<mgrwt>
<rscale>  1 0.30000000E+03</rscale>
<asrwt>0</asrwt>
<pdfrwt beam="1">  1        1 0.14018086E+00 0.30000000E+03</pdfrwt>
<pdfrwt beam="2">0</pdfrwt>
<totfact> 0.20188113E+01</totfact>
</mgrwt>
</event>
<event>
 6    1  0.1940992E-004  0.3000000E+03  0.7818608E-02  0.1093470E+00
          1   -1    0    0  502    0  0.00000000000E+00  0.00000000000E+00  0.28525071894E+02  0.28525071894E+02  0.00000000000E+00 0.  1.
         13   -1    0    0    0    0 -0.00000000000E+00 -0.00000000000E+00 -0.10000000000E+04  0.10000000000E+04  0.00000000000E+00 0.  1.
    9000005    2    1    2  501    0 -0.10812656997E+02  0.38099189645E+01 -0.95518687576E+03  0.10086069976E+04  0.32368917031E+03 0.  0.
         13    1    3    3    0    0 -0.16420749428E+03 -0.22898837013E+02 -0.55352629997E+03  0.57782334902E+03  0.00000000000E+00 0.  1.
          3    1    3    3  501    0  0.15339483728E+03  0.26708755978E+02 -0.40166057580E+03  0.43078364860E+03  0.00000000000E+00 0.  1.
         21    1    1    2  502  501  0.10812656997E+02 -0.38099189645E+01 -0.16288052344E+02  0.19918074280E+02  0.00000000000E+00 0. -1.
<mgrwt>
<rscale>  1 0.30000000E+03</rscale>
<asrwt>0</asrwt>
<pdfrwt beam="1">  1        1 0.10372775E+00 0.30000000E+03</pdfrwt>
<pdfrwt beam="2">0</pdfrwt>
<totfact> 0.32433504E+01</totfact>
</mgrwt>
</event>
<event>
 6    1  0.1940992E-004  0.3000000E+03  0.7818608E-02  0.1093470E+00
          1   -1    0    0  502    0  0.00000000000E+00  0.00000000000E+00  0.50108634745E+02  0.50108634745E+02  0.00000000000E+00 0.  1.
         13   -1    0    0    0    0 -0.00000000000E+00 -0.00000000000E+00 -0.10000000000E+04  0.10000000000E+04  0.00000000000E+00 0.  1.
    9000005    2    1    2  501    0 -0.28062509882E+02  0.19365483287E+02 -0.95513933869E+03  0.10156112779E+04  0.34352959856E+03 0.  0.
         13    1    3    3    0    0  0.93615847831E+02  0.58481087425E+02 -0.82802961071E+03  0.83535441626E+03  0.00000000000E+00 0.  1.
          1    1    3    3  501    0 -0.12167835771E+03 -0.39115604138E+02 -0.12710972798E+03  0.18025686165E+03  0.00000000000E+00 0.  1.
         21    1    1    2  502  501  0.28062509882E+02 -0.19365483287E+02  0.52479734370E+01  0.34497356841E+02  0.00000000000E+00 0.  1.
<mgrwt>
<rscale>  1 0.30000000E+03</rscale>
<asrwt>0</asrwt>
<pdfrwt beam="1">  1        1 0.18221360E+00 0.30000000E+03</pdfrwt>
<pdfrwt beam="2">0</pdfrwt>
<totfact> 0.12463728E+01</totfact>
</mgrwt>
</event>
<event>
 6    1  0.1940992E-004  0.3000000E+03  0.7818608E-02  0.1093470E+00
          1   -1    0    0  502    0  0.00000000000E+00  0.00000000000E+00  0.35911143919E+02  0.35911143919E+02  0.00000000000E+00 0.  1.
         13   -1    0    0    0    0 -0.00000000000E+00 -0.00000000000E+00 -0.10000000000E+04  0.10000000000E+04  0.00000000000E+00 0.  1.
    9000005    2    1    2  501    0  0.11971149452E+02 -0.15365114116E+01 -0.96880462343E+03  0.10229532217E+04  0.32818474390E+03 0.  0.
         13    1    3    3    0    0 -0.10985359925E+03  0.14727657764E+02 -0.83076908876E+03  0.83813005912E+03  0.00000000000E+00 0.  1.
          3    1    3    3  501    0  0.12182474870E+03 -0.16264169176E+02 -0.13803553467E+03  0.18482316258E+03  0.00000000000E+00 0.  1.
         21    1    1    2  502  501 -0.11971149452E+02  0.15365114116E+01  0.47157673452E+01  0.12957922217E+02  0.00000000000E+00 0. -1.
<mgrwt>
<rscale>  1 0.30000000E+03</rscale>
<asrwt>0</asrwt>
<pdfrwt beam="1">  1        1 0.13058625E+00 0.30000000E+03</pdfrwt>
<pdfrwt beam="2">0</pdfrwt>
<totfact> 0.22712414E+01</totfact>
</mgrwt>
</event>
<event>
 6    1  0.1940992E-004  0.3000000E+03  0.7818608E-02  0.1093470E+00
          1   -1    0    0  502    0  0.00000000000E+00  0.00000000000E+00  0.45112923907E+02  0.45112923907E+02  0.00000000000E+00 0.  1.
         13   -1    0    0    0    0 -0.00000000000E+00 -0.00000000000E+00 -0.10000000000E+04  0.10000000000E+04  0.00000000000E+00 0.  1.
    9000005    2    1    2  501    0  0.10014232452E+02  0.11880884877E+02 -0.96894658030E+03  0.10241579738E+04  0.33136179543E+03 0.  0.
         13    1    3    3    0    0  0.14467532137E+02 -0.15809291137E+03 -0.40015802797E+03  0.43049869392E+03  0.00000000000E+00 0.  1.
          1    1    3    3  501    0 -0.44532996848E+01  0.16997379625E+03 -0.56878855232E+03  0.59365927984E+03  0.00000000000E+00 0.  1.
         21    1    1    2  502  501 -0.10014232452E+02 -0.11880884877E+02  0.14059504206E+02  0.20954950145E+02  0.00000000000E+00 0. -1.
<mgrwt>
<rscale>  1 0.30000000E+03</rscale>
<asrwt>0</asrwt>
<pdfrwt beam="1">  1        1 0.16404734E+00 0.30000000E+03</pdfrwt>
<pdfrwt beam="2">0</pdfrwt>
<totfact> 0.15281627E+01</totfact>
</mgrwt>
</event>
<event>
 6    1  0.1940992E-004  0.3000000E+03  0.7818608E-02  0.1093470E+00
          3   -1    0    0  502    0  0.00000000000E+00  0.00000000000E+00  0.24625745890E+02  0.24625745890E+02  0.00000000000E+00 0.  1.
         13   -1    0    0    0    0 -0.00000000000E+00 -0.00000000000E+00 -0.10000000000E+04  0.10000000000E+04  0.00000000000E+00 0.  1.
    9000005    2    1    2  501    0 -0.45595396004E+01  0.10614936523E+02 -0.95834925857E+03  0.10040510830E+04  0.29925208378E+03 0.  0.
         13    1    3    3    0    0 -0.19990527052E+02 -0.10864706117E+03 -0.14723412802E+03  0.18406980613E+03  0.00000000000E+00 0.  1.
          3    1    3    3  501    0  0.15430987452E+02  0.11926199769E+03 -0.81111513055E+03  0.81998127690E+03  0.00000000000E+00 0.  1.
         21    1    1    2  502  501  0.45595396004E+01 -0.10614936523E+02 -0.17024995540E+02  0.20574662862E+02  0.00000000000E+00 0.  1.
<mgrwt>
<rscale>  1 0.30000000E+03</rscale>
<asrwt>0</asrwt>
<pdfrwt beam="1">  1        3 0.89548356E-01 0.30000000E+03</pdfrwt>
<pdfrwt beam="2">0</pdfrwt>
<totfact> 0.51643810E+00</totfact>
</mgrwt>
</event>
<event>
 6    1  0.1940992E-004  0.3000000E+03  0.7818608E-02  0.1093470E+00
          1   -1    0    0  502    0  0.00000000000E+00  0.00000000000E+00  0.31934997557E+02  0.31934997557E+02  0.00000000000E+00 0.  1.
         13   -1    0    0    0    0 -0.00000000000E+00 -0.00000000000E+00 -0.10000000000E+04  0.10000000000E+04  0.00000000000E+00 0.  1.
    9000005    2    1    2  501    0 -0.19858235015E+02  0.96250260867E+01 -0.78596553851E+03  0.84850325170E+03  0.31894976060E+03 0.  0.
         13    1    3    3    0    0 -0.24649767736E+02 -0.15391526736E+03 -0.39939891842E+03  0.42873886762E+03  0.00000000000E+00 0.  1.
          1    1    3    3  501    0  0.47915327207E+01  0.16354029345E+03 -0.38656662009E+03  0.41976438407E+03  0.00000000000E+00 0.  1.
         21    1    1    2  502  501  0.19858235015E+02 -0.96250260867E+01 -0.18209946393E+03  0.18343174586E+03  0.00000000000E+00 0.  1.
<mgrwt>
<rscale>  1 0.30000000E+03</rscale>
<asrwt>0</asrwt>
<pdfrwt beam="1">  1        1 0.11612751E+00 0.30000000E+03</pdfrwt>
<pdfrwt beam="2">0</pdfrwt>
<totfact> 0.27352796E+01</totfact>
</mgrwt>
</event>
<event>
 6    1  0.1940992E-004  0.3000000E+03  0.7818608E-02  0.1093470E+00
          1   -1    0    0  502    0  0.00000000000E+00  0.00000000000E+00  0.29284012043E+02  0.29284012043E+02  0.00000000000E+00 0.  1.
         13   -1    0    0    0    0 -0.00000000000E+00 -0.00000000000E+00 -0.10000000000E+04  0.10000000000E+04  0.00000000000E+00 0.  1.
    9000005    2    1    2  501    0 -0.10791850746E+02 -0.61962302287E+01 -0.95861551585E+03  0.10119266293E+04  0.32387796850E+03 0.  0.
         13    1    3    3    0    0 -0.72175795971E+02  0.86171077063E+02 -0.11412619833E+03  0.16018610798E+03  0.00000000000E+00 0.  1.
          3    1    3    3  501    0  0.61383945225E+02 -0.92367307291E+02 -0.84448931753E+03  0.85174052129E+03  0.00000000000E+00 0.  1.
         21    1    1    2  502  501  0.10791850746E+02  0.61962302287E+01 -0.12100472103E+02  0.17357382772E+02  0.00000000000E+00 0.  1.
<mgrwt>
<rscale>  1 0.30000000E+03</rscale>
<asrwt>0</asrwt>
<pdfrwt beam="1">  1        1 0.10648754E+00 0.30000000E+03</pdfrwt>
<pdfrwt beam="2">0</pdfrwt>
<totfact> 0.31192560E+01</totfact>
</mgrwt>
</event>
<event>
 6    1  0.1940992E-004  0.3000000E+03  0.7818608E-02  0.1093470E+00
          1   -1    0    0  502    0  0.00000000000E+00  0.00000000000E+00  0.35981051428E+02  0.35981051428E+02  0.00000000000E+00 0.  1.
         13   -1    0    0    0    0 -0.00000000000E+00 -0.00000000000E+00 -0.10000000000E+04  0.10000000000E+04  0.00000000000E+00 0.  1.
    9000005    2    1    2  501    0  0.51680655986E+02  0.33210263610E+02 -0.83593479883E+03  0.89392697290E+03  0.31071632266E+03 0.  0.
         13    1    3    3    0    0 -0.16921587513E+02  0.12572212306E+03 -0.14163355626E+03  0.19013799360E+03  0.00000000000E+00 0.  1.
          1    1    3    3  501    0  0.68602243499E+02 -0.92511859446E+02 -0.69430124257E+03  0.70378897930E+03  0.00000000000E+00 0.  1.
         21    1    1    2  502  501 -0.51680655986E+02 -0.33210263610E+02 -0.12808414974E+03  0.14205407853E+03  0.00000000000E+00 0. -1.
<mgrwt>
<rscale>  1 0.30000000E+03</rscale>
<asrwt>0</asrwt>
<pdfrwt beam="1">  1        1 0.13084046E+00 0.30000000E+03</pdfrwt>
<pdfrwt beam="2">0</pdfrwt>
<totfact> 0.22640337E+01</totfact>
</mgrwt>
</event>
<event>
 6    1  0.1940992E-004  0.3000000E+03  0.7818608E-02  0.1093470E+00
          1   -1    0    0  502    0  0.00000000000E+00  0.00000000000E+00  0.30857624569E+02  0.30857624569E+02  0.00000000000E+00 0.  1.
         13   -1    0    0    0    0 -0.00000000000E+00 -0.00000000000E+00 -0.10000000000E+04  0.10000000000E+04  0.00000000000E+00 0.  1.
    9000005    2    1    2  501    0  0.70713526045E+01  0.13785112803E+02 -0.94627568034E+03  0.10032366342E+04  0.33287542370E+03 0.  0.
         13    1    3    3    0    0 -0.67578479842E+02  0.34908673138E+02 -0.27028933876E+02  0.80721928028E+02  0.00000000000E+00 0.  1.
          3    1    3    3  501    0  0.74649832446E+02 -0.21123560335E+02 -0.91924674647E+03  0.92251470621E+03  0.00000000000E+00 0.  1.
         21    1    1    2  502  501 -0.70713526045E+01 -0.13785112803E+02 -0.22866695088E+02  0.27620990332E+02  0.00000000000E+00 0.  1.
<mgrwt>
<rscale>  1 0.30000000E+03</rscale>
<asrwt>0</asrwt>
<pdfrwt beam="1">  1        1 0.11220978E+00 0.30000000E+03</pdfrwt>
<pdfrwt beam="2">0</pdfrwt>
<totfact> 0.28827612E+01</totfact>
</mgrwt>
</event>
<event>
 6    1  0.1940992E-004  0.3000000E+03  0.7818608E-02  0.1093470E+00
          1   -1    0    0  502    0  0.00000000000E+00  0.00000000000E+00  0.27546556929E+02  0.27546556929E+02  0.00000000000E+00 0.  1.
         13   -1    0    0    0    0 -0.00000000000E+00 -0.00000000000E+00 -0.10000000000E+04  0.10000000000E+04  0.00000000000E+00 0.  1.
    9000005    2    1    2  501    0 -0.19370537021E+02  0.14743147648E+00 -0.96105615430E+03  0.10050712898E+04  0.29353726587E+03 0.  0.
         13    1    3    3    0    0 -0.72743871192E+02 -0.10008203609E+03 -0.19705524083E+03  0.23267757237E+03  0.00000000000E+00 0.  1.
          1    1    3    3  501    0  0.53373334170E+02  0.10022946757E+03 -0.76400091347E+03  0.77239371745E+03  0.00000000000E+00 0.  1.
         21    1    1    2  502  501  0.19370537021E+02 -0.14743147648E+00 -0.11397288773E+02  0.22475267115E+02  0.00000000000E+00 0.  1.
<mgrwt>
<rscale>  1 0.30000000E+03</rscale>
<asrwt>0</asrwt>
<pdfrwt beam="1">  1        1 0.10016951E+00 0.30000000E+03</pdfrwt>
<pdfrwt beam="2">0</pdfrwt>
<totfact> 0.34142275E+01</totfact>
</mgrwt>
</event>
<event>
 6    1  0.1940992E-004  0.3000000E+03  0.7818608E-02  0.1093470E+00
          1   -1    0    0  502    0  0.00000000000E+00  0.00000000000E+00  0.42904545969E+02  0.42904545969E+02  0.00000000000E+00 0.  1.
         13   -1    0    0    0    0 -0.00000000000E+00 -0.00000000000E+00 -0.10000000000E+04  0.10000000000E+04  0.00000000000E+00 0.  1.
    9000005    2    1    2  501    0 -0.41829841242E+02  0.30700954730E+02 -0.91791215798E+03  0.97788443424E+03  0.33317105625E+03 0.  0.
         13    1    3    3    0    0 -0.12819583265E+03 -0.15645895564E+02 -0.84729069622E+03  0.85707671154E+03  0.00000000000E+00 0.  1.
          1    1    3    3  501    0  0.86365991407E+02  0.46346850294E+02 -0.70621461763E+02  0.12080772271E+03  0.00000000000E+00 0.  1.
         21    1    1    2  502  501  0.41829841242E+02 -0.30700954730E+02 -0.39183296049E+02  0.65020111727E+02  0.00000000000E+00 0.  1.
<mgrwt>
<rscale>  1 0.30000000E+03</rscale>
<asrwt>0</asrwt>
<pdfrwt beam="1">  1        1 0.15601686E+00 0.30000000E+03</pdfrwt>
<pdfrwt beam="2">0</pdfrwt>
<totfact> 0.16752097E+01</totfact>
</mgrwt>
</event>
<event>
 6    1  0.1940992E-004  0.3000000E+03  0.7818608E-02  0.1093470E+00
          1   -1    0    0  502    0  0.00000000000E+00  0.00000000000E+00  0.27940346569E+02  0.27940346569E+02  0.00000000000E+00 0.  1.
         13   -1    0    0    0    0 -0.00000000000E+00 -0.00000000000E+00 -0.10000000000E+04  0.10000000000E+04  0.00000000000E+00 0.  1.
    9000005    2    1    2  501    0  0.53054420928E+01  0.98820663633E+01 -0.94845746701E+03  0.10018086387E+04  0.32237118192E+03 0.  0.
         13    1    3    3    0    0  0.99173658046E+02 -0.58435913960E+01 -0.87746668728E+03  0.88307267498E+03  0.00000000000E+00 0.  1.
          3    1    3    3  501    0 -0.93868215953E+02  0.15725657759E+02 -0.70990779734E+02  0.11873596374E+03  0.00000000000E+00 0.  1.
         21    1    1    2  502  501 -0.53054420928E+01 -0.98820663633E+01 -0.23602186418E+02  0.26131707849E+02  0.00000000000E+00 0. -1.
<mgrwt>
<rscale>  1 0.30000000E+03</rscale>
<asrwt>0</asrwt>
<pdfrwt beam="1">  1        1 0.10160147E+00 0.30000000E+03</pdfrwt>
<pdfrwt beam="2">0</pdfrwt>
<totfact> 0.33439109E+01</totfact>
</mgrwt>
</event>
<event>
 6    1  0.1940992E-004  0.3000000E+03  0.7818608E-02  0.1093470E+00
          1   -1    0    0  502    0  0.00000000000E+00  0.00000000000E+00  0.31920741675E+02  0.31920741675E+02  0.00000000000E+00 0.  1.
         13   -1    0    0    0    0 -0.00000000000E+00 -0.00000000000E+00 -0.10000000000E+04  0.10000000000E+04  0.00000000000E+00 0.  1.
    9000005    2    1    2  501    0  0.13956594240E+02 -0.74518146289E+01 -0.96527831609E+03  0.10158533417E+04  0.31614153206E+03 0.  0.
         13    1    3    3    0    0 -0.27354011300E+02 -0.11726095356E+03 -0.82152006901E+03  0.83029729432E+03  0.00000000000E+00 0.  1.
          3    1    3    3  501    0  0.41310605540E+02  0.10980913893E+03 -0.14375824708E+03  0.18555604740E+03  0.00000000000E+00 0.  1.
         21    1    1    2  502  501 -0.13956594240E+02  0.74518146289E+01 -0.28009422307E+01  0.16067399959E+02  0.00000000000E+00 0.  1.
<mgrwt>
<rscale>  1 0.30000000E+03</rscale>
<asrwt>0</asrwt>
<pdfrwt beam="1">  1        1 0.11607567E+00 0.30000000E+03</pdfrwt>
<pdfrwt beam="2">0</pdfrwt>
<totfact> 0.27371611E+01</totfact>
</mgrwt>
</event>
<event>
 6    1  0.1940992E-004  0.3000000E+03  0.7818608E-02  0.1093470E+00
          1   -1    0    0  502    0  0.00000000000E+00  0.00000000000E+00  0.47477120130E+02  0.47477120130E+02  0.00000000000E+00 0.  1.
         13   -1    0    0    0    0 -0.00000000000E+00 -0.00000000000E+00 -0.10000000000E+04  0.10000000000E+04  0.00000000000E+00 0.  1.
    9000005    2    1    2  501    0 -0.11112806772E+02  0.43488462257E+01 -0.97189860397E+03  0.10247213380E+04  0.32453738944E+03 0.  0.
         13    1    3    3    0    0 -0.15808050052E+03 -0.35412354000E+02 -0.37084701194E+03  0.40468628062E+03  0.00000000000E+00 0.  1.
          1    1    3    3  501    0  0.14696769375E+03  0.39761200226E+02 -0.60105159203E+03  0.62003505734E+03  0.00000000000E+00 0.  1.
         21    1    1    2  502  501  0.11112806772E+02 -0.43488462257E+01  0.19375724096E+02  0.22755782168E+02  0.00000000000E+00 0. -1.
<mgrwt>
<rscale>  1 0.30000000E+03</rscale>
<asrwt>0</asrwt>
<pdfrwt beam="1">  1        1 0.17264444E+00 0.30000000E+03</pdfrwt>
<pdfrwt beam="2">0</pdfrwt>
<totfact> 0.13869013E+01</totfact>
</mgrwt>
</event>
<event>
 6    1  0.1940992E-004  0.3000000E+03  0.7818608E-02  0.1093470E+00
          1   -1    0    0  502    0  0.00000000000E+00  0.00000000000E+00  0.31021554110E+02  0.31021554110E+02  0.00000000000E+00 0.  1.
         13   -1    0    0    0    0 -0.00000000000E+00 -0.00000000000E+00 -0.10000000000E+04  0.10000000000E+04  0.00000000000E+00 0.  1.
    9000005    2    1    2  501    0 -0.98906298086E+01 -0.79354254217E+01 -0.96298498802E+03  0.10169959678E+04  0.32677196299E+03 0.  0.
         13    1    3    3    0    0 -0.11470826575E+03  0.10510204753E+03 -0.64659851705E+03  0.66505192946E+03  0.00000000000E+00 0.  1.
          1    1    3    3  501    0  0.10481763595E+03 -0.11303747295E+03 -0.31638647097E+03  0.35194403832E+03  0.00000000000E+00 0.  1.
         21    1    1    2  502  501  0.98906298086E+01  0.79354254217E+01 -0.59934578725E+01  0.14025586330E+02  0.00000000000E+00 0. -1.
<mgrwt>
<rscale>  1 0.30000000E+03</rscale>
<asrwt>0</asrwt>
<pdfrwt beam="1">  1        1 0.11280589E+00 0.30000000E+03</pdfrwt>
<pdfrwt beam="2">0</pdfrwt>
<totfact> 0.28596041E+01</totfact>
</mgrwt>
</event>
<event>
 6    1  0.1940992E-004  0.3000000E+03  0.7818608E-02  0.1093470E+00
          1   -1    0    0  502    0  0.00000000000E+00  0.00000000000E+00  0.27634729634E+02  0.27634729634E+02  0.00000000000E+00 0.  1.
         13   -1    0    0    0    0 -0.00000000000E+00 -0.00000000000E+00 -0.10000000000E+04  0.10000000000E+04  0.00000000000E+00 0.  1.
    9000005    2    1    2  501    0 -0.85083050372E+01 -0.51208776609E+01 -0.94558699336E+03  0.99907442918E+03  0.32236057201E+03 0.  0.
         13    1    3    3    0    0  0.14099369756E+03 -0.71991920349E+02 -0.49049811057E+03  0.51541289838E+03  0.00000000000E+00 0.  1.
          3    1    3    3  501    0 -0.14950200260E+03  0.66871042688E+02 -0.45508888279E+03  0.48366153079E+03  0.00000000000E+00 0.  1.
         21    1    1    2  502  501  0.85083050372E+01  0.51208776609E+01 -0.26778277008E+02  0.28560300456E+02  0.00000000000E+00 0. -1.
<mgrwt>
<rscale>  1 0.30000000E+03</rscale>
<asrwt>0</asrwt>
<pdfrwt beam="1">  1        1 0.10049014E+00 0.30000000E+03</pdfrwt>
<pdfrwt beam="2">0</pdfrwt>
<totfact> 0.33982955E+01</totfact>
</mgrwt>
</event>
<event>
 6    1  0.1940992E-004  0.3000000E+03  0.7818608E-02  0.1093470E+00
          3   -1    0    0  502    0  0.00000000000E+00  0.00000000000E+00  0.37925908564E+02  0.37925908564E+02  0.00000000000E+00 0.  1.
         13   -1    0    0    0    0 -0.00000000000E+00 -0.00000000000E+00 -0.10000000000E+04  0.10000000000E+04  0.00000000000E+00 0.  1.
    9000005    2    1    2  501    0 -0.32575444618E+02  0.17753410116E+02 -0.94532105277E+03  0.99721955197E+03  0.31533886352E+03 0.  0.
         13    1    3    3    0    0 -0.14274423735E+03 -0.85144315925E+02 -0.46617358724E+03  0.49491745299E+03  0.00000000000E+00 0.  1.
          1    1    3    3  501    0  0.11016879273E+03  0.10289772604E+03 -0.47914746553E+03  0.50230209898E+03  0.00000000000E+00 0.  1.
         21    1    1    2  502  501  0.32575444618E+02 -0.17753410116E+02 -0.16753038662E+02  0.40706356595E+02  0.00000000000E+00 0.  1.
<mgrwt>
<rscale>  1 0.30000000E+03</rscale>
<asrwt>0</asrwt>
<pdfrwt beam="1">  1        3 0.13791269E+00 0.30000000E+03</pdfrwt>
<pdfrwt beam="2">0</pdfrwt>
<totfact> 0.14220245E+00</totfact>
</mgrwt>
</event>
<event>
 6    1  0.1940992E-004  0.3000000E+03  0.7818608E-02  0.1093470E+00
          1   -1    0    0  502    0  0.00000000000E+00  0.00000000000E+00  0.59720621983E+02  0.59720621983E+02  0.00000000000E+00 0.  1.
         13   -1    0    0    0    0 -0.00000000000E+00 -0.00000000000E+00 -0.10000000000E+04  0.10000000000E+04  0.00000000000E+00 0.  1.
    9000005    2    1    2  501    0 -0.17382157730E+02 -0.57585315897E+02 -0.94489765468E+03  0.99939205086E+03  0.31989792980E+03 0.  0.
         13    1    3    3    0    0  0.81217724638E+02  0.77618176677E+02 -0.65583424658E+03  0.66538669894E+03  0.00000000000E+00 0.  1.
          1    1    3    3  501    0 -0.98599882368E+02 -0.13520349257E+03 -0.28906340810E+03  0.33400535192E+03  0.00000000000E+00 0.  1.
         21    1    1    2  502  501  0.17382157730E+02  0.57585315897E+02  0.46182766624E+01  0.60328571122E+02  0.00000000000E+00 0. -1.
<mgrwt>
<rscale>  1 0.30000000E+03</rscale>
<asrwt>0</asrwt>
<pdfrwt beam="1">  1        1 0.21716636E+00 0.30000000E+03</pdfrwt>
<pdfrwt beam="2">0</pdfrwt>
<totfact> 0.84994769E+00</totfact>
</mgrwt>
</event>
<event>
 6    1  0.1940992E-004  0.3000000E+03  0.7818608E-02  0.1093470E+00
          1   -1    0    0  502    0  0.00000000000E+00  0.00000000000E+00  0.34852285028E+02  0.34852285028E+02  0.00000000000E+00 0.  1.
         13   -1    0    0    0    0 -0.00000000000E+00 -0.00000000000E+00 -0.10000000000E+04  0.10000000000E+04  0.00000000000E+00 0.  1.
    9000005    2    1    2  501    0 -0.40746922473E+02  0.21324913493E+01 -0.91995207173E+03  0.97396299715E+03  0.31721797920E+03 0.  0.
         13    1    3    3    0    0  0.65994020924E+02  0.90201789179E+02 -0.73243094430E+03  0.74090934785E+03  0.00000000000E+00 0.  1.
          3    1    3    3  501    0 -0.10674094340E+03 -0.88069297830E+02 -0.18752112743E+03  0.23305364929E+03  0.00000000000E+00 0.  1.
         21    1    1    2  502  501  0.40746922473E+02 -0.21324913493E+01 -0.45195643245E+02  0.60889287882E+02  0.00000000000E+00 0. -1.
<mgrwt>
<rscale>  1 0.30000000E+03</rscale>
<asrwt>0</asrwt>
<pdfrwt beam="1">  1        1 0.12673585E+00 0.30000000E+03</pdfrwt>
<pdfrwt beam="2">0</pdfrwt>
<totfact> 0.23841415E+01</totfact>
</mgrwt>
</event>
<event>
 6    1  0.1940992E-004  0.3000000E+03  0.7818608E-02  0.1093470E+00
          1   -1    0    0  502    0  0.00000000000E+00  0.00000000000E+00  0.34836574790E+02  0.34836574790E+02  0.00000000000E+00 0.  1.
         13   -1    0    0    0    0 -0.00000000000E+00 -0.00000000000E+00 -0.10000000000E+04  0.10000000000E+04  0.00000000000E+00 0.  1.
    9000005    2    1    2  501    0  0.11471181293E+02 -0.12606381212E+01 -0.97006232316E+03  0.10222995732E+04  0.32240088286E+03 0.  0.
         13    1    3    3    0    0  0.16138824871E+03  0.20399892777E+02 -0.61765483126E+03  0.63871731856E+03  0.00000000000E+00 0.  1.
          3    1    3    3  501    0 -0.14991706742E+03 -0.21660530899E+02 -0.35240749190E+03  0.38358225460E+03  0.00000000000E+00 0.  1.
         21    1    1    2  502  501 -0.11471181293E+02  0.12606381212E+01  0.48988979482E+01  0.12537001628E+02  0.00000000000E+00 0.  1.
<mgrwt>
<rscale>  1 0.30000000E+03</rscale>
<asrwt>0</asrwt>
<pdfrwt beam="1">  1        1 0.12667872E+00 0.30000000E+03</pdfrwt>
<pdfrwt beam="2">0</pdfrwt>
<totfact> 0.23858704E+01</totfact>
</mgrwt>
</event>
<event>
 6    1  0.1940992E-004  0.3000000E+03  0.7818608E-02  0.1093470E+00
          1   -1    0    0  502    0  0.00000000000E+00  0.00000000000E+00  0.69398434447E+02  0.69398434447E+02  0.00000000000E+00 0.  1.
         13   -1    0    0    0    0 -0.00000000000E+00 -0.00000000000E+00 -0.10000000000E+04  0.10000000000E+04  0.00000000000E+00 0.  1.
    9000005    2    1    2  501    0 -0.49837567754E+00 -0.28652154604E+02 -0.96833509818E+03  0.10220168576E+04  0.32561388250E+03 0.  0.
         13    1    3    3    0    0 -0.88178231230E+02  0.20304483040E+01 -0.54946105313E+02  0.10391630128E+03  0.00000000000E+00 0.  1.
          3    1    3    3  501    0  0.87679855552E+02 -0.30682602908E+02 -0.91338899287E+03  0.91810055630E+03  0.00000000000E+00 0.  1.
         21    1    1    2  502  501  0.49837567754E+00  0.28652154604E+02  0.37733532626E+02  0.47381576865E+02  0.00000000000E+00 0.  1.
<mgrwt>
<rscale>  1 0.30000000E+03</rscale>
<asrwt>0</asrwt>
<pdfrwt beam="1">  1        1 0.25235848E+00 0.30000000E+03</pdfrwt>
<pdfrwt beam="2">0</pdfrwt>
<totfact> 0.58171253E+00</totfact>
</mgrwt>
</event>
<event>
 6    1  0.1940992E-004  0.3000000E+03  0.7818608E-02  0.1093470E+00
          1   -1    0    0  502    0  0.00000000000E+00  0.00000000000E+00  0.31684970944E+02  0.31684970944E+02  0.00000000000E+00 0.  1.
         13   -1    0    0    0    0 -0.00000000000E+00 -0.00000000000E+00 -0.10000000000E+04  0.10000000000E+04  0.00000000000E+00 0.  1.
    9000005    2    1    2  501    0  0.28892880660E+02  0.58464905822E+00 -0.91369565540E+03  0.96989163517E+03  0.32406001437E+03 0.  0.
         13    1    3    3    0    0 -0.24482086266E+02 -0.17991599283E+02  0.18771574521E+02  0.35713333682E+02  0.00000000000E+00 0.  1.
          1    1    3    3  501    0  0.53374966925E+02  0.18576248341E+02 -0.93246722992E+03  0.93417830149E+03  0.00000000000E+00 0.  1.
         21    1    1    2  502  501 -0.28892880660E+02 -0.58464905822E+00 -0.54619373656E+02  0.61793335773E+02  0.00000000000E+00 0.  1.
<mgrwt>
<rscale>  1 0.30000000E+03</rscale>
<asrwt>0</asrwt>
<pdfrwt beam="1">  1        1 0.11521832E+00 0.30000000E+03</pdfrwt>
<pdfrwt beam="2">0</pdfrwt>
<totfact> 0.27685418E+01</totfact>
</mgrwt>
</event>
<event>
 6    1  0.1940992E-004  0.3000000E+03  0.7818608E-02  0.1093470E+00
          1   -1    0    0  502    0  0.00000000000E+00  0.00000000000E+00  0.55134696630E+02  0.55134696630E+02  0.00000000000E+00 0.  1.
         13   -1    0    0    0    0 -0.00000000000E+00 -0.00000000000E+00 -0.10000000000E+04  0.10000000000E+04  0.00000000000E+00 0.  1.
    9000005    2    1    2  501    0  0.12331884149E+03 -0.65112870205E+01 -0.77401094943E+03  0.84432401430E+03  0.31391106664E+03 0.  0.
         13    1    3    3    0    0  0.13278408283E+03  0.37503418704E+02 -0.10395265131E+03  0.17275495009E+03  0.00000000000E+00 0.  1.
          1    1    3    3  501    0 -0.94652413438E+01 -0.44014705725E+02 -0.67005829812E+03  0.67156906421E+03  0.00000000000E+00 0.  1.
         21    1    1    2  502  501 -0.12331884149E+03  0.65112870205E+01 -0.17085435394E+03  0.21081068233E+03  0.00000000000E+00 0.  1.
<mgrwt>
<rscale>  1 0.30000000E+03</rscale>
<asrwt>0</asrwt>
<pdfrwt beam="1">  1        1 0.20049023E+00 0.30000000E+03</pdfrwt>
<pdfrwt beam="2">0</pdfrwt>
<totfact> 0.10188605E+01</totfact>
</mgrwt>
</event>
<event>
 6    1  0.1940992E-004  0.3000000E+03  0.7818608E-02  0.1093470E+00
          1   -1    0    0  502    0  0.00000000000E+00  0.00000000000E+00  0.33276068487E+02  0.33276068487E+02  0.00000000000E+00 0.  1.
         13   -1    0    0    0    0 -0.00000000000E+00 -0.00000000000E+00 -0.10000000000E+04  0.10000000000E+04  0.00000000000E+00 0.  1.
    9000005    2    1    2  501    0  0.15733396120E+02 -0.15099256461E+02 -0.95661251131E+03  0.10092392609E+04  0.32090631297E+03 0.  0.
         13    1    3    3    0    0 -0.93339192854E+02 -0.10233587201E+03 -0.22348687775E+03  0.26292816538E+03  0.00000000000E+00 0.  1.
          3    1    3    3  501    0  0.10907258897E+03  0.87236615550E+02 -0.73312563356E+03  0.74631109555E+03  0.00000000000E+00 0.  1.
         21    1    1    2  502  501 -0.15733396120E+02  0.15099256461E+02 -0.10111420206E+02  0.24036807560E+02  0.00000000000E+00 0. -1.
<mgrwt>
<rscale>  1 0.30000000E+03</rscale>
<asrwt>0</asrwt>
<pdfrwt beam="1">  1        1 0.12100414E+00 0.30000000E+03</pdfrwt>
<pdfrwt beam="2">0</pdfrwt>
<totfact> 0.25659118E+01</totfact>
</mgrwt>
</event>
<event>
 6    1  0.1940992E-004  0.3000000E+03  0.7818608E-02  0.1093470E+00
          1   -1    0    0  502    0  0.00000000000E+00  0.00000000000E+00  0.40419530916E+02  0.40419530916E+02  0.00000000000E+00 0.  1.
         13   -1    0    0    0    0 -0.00000000000E+00 -0.00000000000E+00 -0.10000000000E+04  0.10000000000E+04  0.00000000000E+00 0.  1.
    9000005    2    1    2  501    0  0.11017985773E+02 -0.20883665431E+01 -0.95912182589E+03  0.10291960003E+04  0.37310048634E+03 0.  0.
         13    1    3    3    0    0  0.14146543088E+03 -0.87074420786E+02 -0.75175108517E+03  0.76988578175E+03  0.00000000000E+00 0.  1.
          1    1    3    3  501    0 -0.13044744511E+03  0.84986054243E+02 -0.20737074072E+03  0.25931021857E+03  0.00000000000E+00 0.  1.
         21    1    1    2  502  501 -0.11017985773E+02  0.20883665431E+01 -0.45864319686E+00  0.11223530590E+02  0.00000000000E+00 0. -1.
<mgrwt>
<rscale>  1 0.30000000E+03</rscale>
<asrwt>0</asrwt>
<pdfrwt beam="1">  1        1 0.14698042E+00 0.30000000E+03</pdfrwt>
<pdfrwt beam="2">0</pdfrwt>
<totfact> 0.18614306E+01</totfact>
</mgrwt>
</event>
<event>
 6    1  0.1940992E-004  0.3000000E+03  0.7818608E-02  0.1093470E+00
          1   -1    0    0  502    0  0.00000000000E+00  0.00000000000E+00  0.84113102716E+02  0.84113102716E+02  0.00000000000E+00 0.  1.
         13   -1    0    0    0    0 -0.00000000000E+00 -0.00000000000E+00 -0.10000000000E+04  0.10000000000E+04  0.00000000000E+00 0.  1.
    9000005    2    1    2  501    0 -0.72953068016E+02  0.49642252170E+02 -0.93531124696E+03  0.99375930538E+03  0.32398136522E+03 0.  0.
         13    1    3    3    0    0 -0.15994518548E+03  0.13632408212E+03 -0.65032283913E+03  0.68343727789E+03  0.00000000000E+00 0.  1.
          1    1    3    3  501    0  0.86992117464E+02 -0.86681829952E+02 -0.28498840783E+03  0.31032202748E+03  0.00000000000E+00 0.  1.
         21    1    1    2  502  501  0.72953068016E+02 -0.49642252170E+02  0.19424349671E+02  0.90353797339E+02  0.00000000000E+00 0.  1.
<mgrwt>
<rscale>  1 0.30000000E+03</rscale>
<asrwt>0</asrwt>
<pdfrwt beam="1">  1        1 0.30586647E+00 0.30000000E+03</pdfrwt>
<pdfrwt beam="2">0</pdfrwt>
<totfact> 0.32580756E+00</totfact>
</mgrwt>
</event>
<event>
 6    1  0.1940992E-004  0.3000000E+03  0.7818608E-02  0.1093470E+00
          1   -1    0    0  502    0  0.00000000000E+00  0.00000000000E+00  0.41442649380E+02  0.41442649380E+02  0.00000000000E+00 0.  1.
         13   -1    0    0    0    0 -0.00000000000E+00 -0.00000000000E+00 -0.10000000000E+04  0.10000000000E+04  0.00000000000E+00 0.  1.
    9000005    2    1    2  501    0  0.25618378855E+02  0.26109677360E+01 -0.96864352783E+03  0.10137867376E+04  0.29804386717E+03 0.  0.
         13    1    3    3    0    0  0.15569993773E+03 -0.12968988505E+02 -0.38247627886E+03  0.41315707566E+03  0.00000000000E+00 0.  1.
          3    1    3    3  501    0 -0.13008155888E+03  0.15579956241E+02 -0.58616724897E+03  0.60062966191E+03  0.00000000000E+00 0.  1.
         21    1    1    2  502  501 -0.25618378855E+02 -0.26109677360E+01  0.10086177213E+02  0.27655911818E+02  0.00000000000E+00 0. -1.
<mgrwt>
<rscale>  1 0.30000000E+03</rscale>
<asrwt>0</asrwt>
<pdfrwt beam="1">  1        1 0.15070086E+00 0.30000000E+03</pdfrwt>
<pdfrwt beam="2">0</pdfrwt>
<totfact> 0.17818282E+01</totfact>
</mgrwt>
</event>
<event>
 6    1  0.1940992E-004  0.3000000E+03  0.7818608E-02  0.1093470E+00
          3   -1    0    0  502    0  0.00000000000E+00  0.00000000000E+00  0.31076776167E+02  0.31076776167E+02  0.00000000000E+00 0.  1.
         13   -1    0    0    0    0 -0.00000000000E+00 -0.00000000000E+00 -0.10000000000E+04  0.10000000000E+04  0.00000000000E+00 0.  1.
    9000005    2    1    2  501    0 -0.51548515196E+02 -0.18138833637E+02 -0.92522046953E+03  0.96110394260E+03  0.25436510084E+03 0.  0.
         13    1    3    3    0    0  0.46424587253E+02  0.96231037948E+02 -0.31720162275E+03  0.33471259977E+03  0.00000000000E+00 0.  1.
          1    1    3    3  501    0 -0.97973102449E+02 -0.11436987158E+03 -0.60801884678E+03  0.62639134283E+03  0.00000000000E+00 0.  1.
         21    1    1    2  502  501  0.51548515196E+02  0.18138833637E+02 -0.43702754299E+02  0.69972833571E+02  0.00000000000E+00 0.  1.
<mgrwt>
<rscale>  1 0.30000000E+03</rscale>
<asrwt>0</asrwt>
<pdfrwt beam="1">  1        3 0.11300670E+00 0.30000000E+03</pdfrwt>
<pdfrwt beam="2">0</pdfrwt>
<totfact> 0.27846771E+00</totfact>
</mgrwt>
</event>
<event>
 6    1  0.1940992E-004  0.3000000E+03  0.7818608E-02  0.1093470E+00
          1   -1    0    0  502    0  0.00000000000E+00  0.00000000000E+00  0.33876625139E+02  0.33876625139E+02  0.00000000000E+00 0.  1.
         13   -1    0    0    0    0 -0.00000000000E+00 -0.00000000000E+00 -0.10000000000E+04  0.10000000000E+04  0.00000000000E+00 0.  1.
    9000005    2    1    2  501    0 -0.11473616196E+02 -0.30725499775E+02 -0.91028751213E+03  0.96912059243E+03  0.33090129606E+03 0.  0.
         13    1    3    3    0    0  0.15279282908E+03  0.28860711985E+02 -0.37232875731E+03  0.40349385725E+03  0.00000000000E+00 0.  1.
          3    1    3    3  501    0 -0.16426644527E+03 -0.59586211760E+02 -0.53795875482E+03  0.56562673519E+03  0.00000000000E+00 0.  1.
         21    1    1    2  502  501  0.11473616196E+02  0.30725499775E+02 -0.55835862730E+02  0.64756032705E+02  0.00000000000E+00 0.  1.
<mgrwt>
<rscale>  1 0.30000000E+03</rscale>
<asrwt>0</asrwt>
<pdfrwt beam="1">  1        1 0.12318799E+00 0.30000000E+03</pdfrwt>
<pdfrwt beam="2">0</pdfrwt>
<totfact> 0.24946102E+01</totfact>
</mgrwt>
</event>
<event>
 6    1  0.1940992E-004  0.3000000E+03  0.7818608E-02  0.1093470E+00
          1   -1    0    0  502    0  0.00000000000E+00  0.00000000000E+00  0.32847077807E+02  0.32847077807E+02  0.00000000000E+00 0.  1.
         13   -1    0    0    0    0 -0.00000000000E+00 -0.00000000000E+00 -0.10000000000E+04  0.10000000000E+04  0.00000000000E+00 0.  1.
    9000005    2    1    2  501    0 -0.13252842414E+02 -0.13852875745E+02 -0.93759291257E+03  0.99761450527E+03  0.34027443546E+03 0.  0.
         13    1    3    3    0    0 -0.57213676458E+01  0.63653061447E+02 -0.91402300089E+03  0.91625460023E+03  0.00000000000E+00 0.  1.
          1    1    3    3  501    0 -0.75314747685E+01 -0.77505937192E+02 -0.23569911678E+02  0.81359905043E+02  0.00000000000E+00 0.  1.
         21    1    1    2  502  501  0.13252842414E+02  0.13852875745E+02 -0.29560009623E+02  0.35232572534E+02  0.00000000000E+00 0. -1.
<mgrwt>
<rscale>  1 0.30000000E+03</rscale>
<asrwt>0</asrwt>
<pdfrwt beam="1">  1        1 0.11944417E+00 0.30000000E+03</pdfrwt>
<pdfrwt beam="2">0</pdfrwt>
<totfact> 0.26185058E+01</totfact>
</mgrwt>
</event>
<event>
 6    1  0.1940992E-004  0.3000000E+03  0.7818608E-02  0.1093470E+00
          1   -1    0    0  502    0  0.00000000000E+00  0.00000000000E+00  0.32955976443E+02  0.32955976443E+02  0.00000000000E+00 0.  1.
         13   -1    0    0    0    0 -0.00000000000E+00 -0.00000000000E+00 -0.10000000000E+04  0.10000000000E+04  0.00000000000E+00 0.  1.
    9000005    2    1    2  501    0  0.36206162737E+01  0.28166338894E+02 -0.92633016149E+03  0.98331657603E+03  0.32866011182E+03 0.  0.
         13    1    3    3    0    0  0.81676257244E+02 -0.32934839544E+02 -0.85896147869E+03  0.86346426476E+03  0.00000000000E+00 0.  1.
          3    1    3    3  501    0 -0.78055640971E+02  0.61101178438E+02 -0.67368682807E+02  0.11985231127E+03  0.00000000000E+00 0.  1.
         21    1    1    2  502  501 -0.36206162737E+01 -0.28166338894E+02 -0.40713862065E+02  0.49639400411E+02  0.00000000000E+00 0. -1.
<mgrwt>
<rscale>  1 0.30000000E+03</rscale>
<asrwt>0</asrwt>
<pdfrwt beam="1">  1        1 0.11984017E+00 0.30000000E+03</pdfrwt>
<pdfrwt beam="2">0</pdfrwt>
<totfact> 0.26050192E+01</totfact>
</mgrwt>
</event>
<event>
 6    1  0.1940992E-004  0.3000000E+03  0.7818608E-02  0.1093470E+00
          1   -1    0    0  502    0  0.00000000000E+00  0.00000000000E+00  0.29046419674E+02  0.29046419674E+02  0.00000000000E+00 0.  1.
         13   -1    0    0    0    0 -0.00000000000E+00 -0.00000000000E+00 -0.10000000000E+04  0.10000000000E+04  0.00000000000E+00 0.  1.
    9000005    2    1    2  501    0  0.11594339688E+02  0.43048594106E+01 -0.94330234926E+03  0.99875531360E+03  0.32793275806E+03 0.  0.
         13    1    3    3    0    0  0.15579395034E+03  0.21678805098E+02 -0.29428337073E+03  0.33368312490E+03  0.00000000000E+00 0.  1.
          3    1    3    3  501    0 -0.14419961065E+03 -0.17373945687E+02 -0.64901897853E+03  0.66507218870E+03  0.00000000000E+00 0.  1.
         21    1    1    2  502  501 -0.11594339688E+02 -0.43048594106E+01 -0.27651231068E+02  0.30291106070E+02  0.00000000000E+00 0. -1.
<mgrwt>
<rscale>  1 0.30000000E+03</rscale>
<asrwt>0</asrwt>
<pdfrwt beam="1">  1        1 0.10562357E+00 0.30000000E+03</pdfrwt>
<pdfrwt beam="2">0</pdfrwt>
<totfact> 0.31573558E+01</totfact>
</mgrwt>
</event>
<event>
 6    1  0.1940992E-004  0.3000000E+03  0.7818608E-02  0.1093470E+00
          1   -1    0    0  502    0  0.00000000000E+00  0.00000000000E+00  0.83171528756E+02  0.83171528756E+02  0.00000000000E+00 0.  1.
         13   -1    0    0    0    0 -0.00000000000E+00 -0.00000000000E+00 -0.10000000000E+04  0.10000000000E+04  0.00000000000E+00 0.  1.
    9000005    2    1    2  501    0 -0.84325455431E+01 -0.20966078703E+02 -0.96472111800E+03  0.10302150382E+04  0.36075685041E+03 0.  0.
         13    1    3    3    0    0  0.68256779822E+01 -0.91271265822E+02 -0.35431600299E+02  0.98144954757E+02  0.00000000000E+00 0.  1.
          3    1    3    3  501    0 -0.15258223525E+02  0.70305187119E+02 -0.92928951770E+03  0.93207008343E+03  0.00000000000E+00 0.  1.
         21    1    1    2  502  501  0.84325455431E+01  0.20966078703E+02  0.47892646752E+02  0.52956490569E+02  0.00000000000E+00 0.  1.
<mgrwt>
<rscale>  1 0.30000000E+03</rscale>
<asrwt>0</asrwt>
<pdfrwt beam="1">  1        1 0.30244256E+00 0.30000000E+03</pdfrwt>
<pdfrwt beam="2">0</pdfrwt>
<totfact> 0.33828128E+00</totfact>
</mgrwt>
</event>
<event>
 6    1  0.1940992E-004  0.3000000E+03  0.7818608E-02  0.1093470E+00
          1   -1    0    0  502    0  0.00000000000E+00  0.00000000000E+00  0.30481357417E+02  0.30481357417E+02  0.00000000000E+00 0.  1.
         13   -1    0    0    0    0 -0.00000000000E+00 -0.00000000000E+00 -0.10000000000E+04  0.10000000000E+04  0.00000000000E+00 0.  1.
    9000005    2    1    2  501    0 -0.35870381277E+01  0.94138651320E+01 -0.96154782547E+03  0.10176352831E+04  0.33302531600E+03 0.  0.
         13    1    3    3    0    0  0.10733407273E+03  0.87322284037E+02 -0.19446223765E+03  0.23866576280E+03  0.00000000000E+00 0.  1.
          1    1    3    3  501    0 -0.11092111085E+03 -0.77908418905E+02 -0.76708558782E+03  0.77896952033E+03  0.00000000000E+00 0.  1.
         21    1    1    2  502  501  0.35870381277E+01 -0.94138651320E+01 -0.79708171110E+01  0.12846074290E+02  0.00000000000E+00 0.  1.
<mgrwt>
<rscale>  1 0.30000000E+03</rscale>
<asrwt>0</asrwt>
<pdfrwt beam="1">  1        1 0.11084153E+00 0.30000000E+03</pdfrwt>
<pdfrwt beam="2">0</pdfrwt>
<totfact> 0.29369303E+01</totfact>
</mgrwt>
</event>
<event>
 6    1  0.1940992E-004  0.3000000E+03  0.7818608E-02  0.1093470E+00
          1   -1    0    0  502    0  0.00000000000E+00  0.00000000000E+00  0.35817221226E+02  0.35817221226E+02  0.00000000000E+00 0.  1.
         13   -1    0    0    0    0 -0.00000000000E+00 -0.00000000000E+00 -0.10000000000E+04  0.10000000000E+04  0.00000000000E+00 0.  1.
    9000005    2    1    2  501    0 -0.12476287858E+01 -0.13666808089E+02 -0.96195614015E+03  0.10219141230E+04  0.34461648391E+03 0.  0.
         13    1    3    3    0    0 -0.41695935297E+02 -0.14353722893E+03 -0.78295448137E+03  0.79709422718E+03  0.00000000000E+00 0.  1.
          3    1    3    3  501    0  0.40448306512E+02  0.12987042084E+03 -0.17900165878E+03  0.22481989582E+03  0.00000000000E+00 0.  1.
         21    1    1    2  502  501  0.12476287858E+01  0.13666808089E+02 -0.22266386279E+01  0.13903098234E+02  0.00000000000E+00 0. -1.
<mgrwt>
<rscale>  1 0.30000000E+03</rscale>
<asrwt>0</asrwt>
<pdfrwt beam="1">  1        1 0.13024472E+00 0.30000000E+03</pdfrwt>
<pdfrwt beam="2">0</pdfrwt>
<totfact> 0.22809723E+01</totfact>
</mgrwt>
</event>
<event>
 6    1  0.1940992E-004  0.3000000E+03  0.7818608E-02  0.1093470E+00
          1   -1    0    0  502    0  0.00000000000E+00  0.00000000000E+00  0.34178241762E+02  0.34178241762E+02  0.00000000000E+00 0.  1.
         13   -1    0    0    0    0 -0.00000000000E+00 -0.00000000000E+00 -0.10000000000E+04  0.10000000000E+04  0.00000000000E+00 0.  1.
    9000005    2    1    2  501    0  0.10663390331E+02 -0.12432370764E+02 -0.95750782905E+03  0.10158099769E+04  0.33879255409E+03 0.  0.
         13    1    3    3    0    0 -0.10744531442E+03 -0.10489555715E+03 -0.71550579213E+03  0.73109241008E+03  0.00000000000E+00 0.  1.
          3    1    3    3  501    0  0.11810870475E+03  0.92463186390E+02 -0.24200203692E+03  0.28471756680E+03  0.00000000000E+00 0.  1.
         21    1    1    2  502  501 -0.10663390331E+02  0.12432370764E+02 -0.83139291875E+01  0.18368264880E+02  0.00000000000E+00 0. -1.
<mgrwt>
<rscale>  1 0.30000000E+03</rscale>
<asrwt>0</asrwt>
<pdfrwt beam="1">  1        1 0.12428478E+00 0.30000000E+03</pdfrwt>
<pdfrwt beam="2">0</pdfrwt>
<totfact> 0.24597751E+01</totfact>
</mgrwt>
</event>
<event>
 6    1  0.1940992E-004  0.3000000E+03  0.7818608E-02  0.1093470E+00
          1   -1    0    0  502    0  0.00000000000E+00  0.00000000000E+00  0.29551157723E+02  0.29551157723E+02  0.00000000000E+00 0.  1.
         13   -1    0    0    0    0 -0.00000000000E+00 -0.00000000000E+00 -0.10000000000E+04  0.10000000000E+04  0.00000000000E+00 0.  1.
    9000005    2    1    2  501    0  0.37456413945E+01 -0.10806441681E+02 -0.96368324871E+03  0.10162627316E+04  0.32244957262E+03 0.  0.
         13    1    3    3    0    0  0.52626996320E+02  0.14763556448E+03 -0.45524667950E+03  0.48147211740E+03  0.00000000000E+00 0.  1.
          1    1    3    3  501    0 -0.48881354925E+02 -0.15844200616E+03 -0.50843656921E+03  0.53479061425E+03  0.00000000000E+00 0.  1.
         21    1    1    2  502  501 -0.37456413945E+01  0.10806441681E+02 -0.67655935705E+01  0.13288426078E+02  0.00000000000E+00 0. -1.
<mgrwt>
<rscale>  1 0.30000000E+03</rscale>
<asrwt>0</asrwt>
<pdfrwt beam="1">  1        1 0.10745898E+00 0.30000000E+03</pdfrwt>
<pdfrwt beam="2">0</pdfrwt>
<totfact> 0.30772021E+01</totfact>
</mgrwt>
</event>
<event>
 6    1  0.1940992E-004  0.3000000E+03  0.7818608E-02  0.1093470E+00
          1   -1    0    0  502    0  0.00000000000E+00  0.00000000000E+00  0.35635125547E+02  0.35635125547E+02  0.00000000000E+00 0.  1.
         13   -1    0    0    0    0 -0.00000000000E+00 -0.00000000000E+00 -0.10000000000E+04  0.10000000000E+04  0.00000000000E+00 0.  1.
    9000005    2    1    2  501    0 -0.21573373367E+02  0.21701564297E+02 -0.94393196942E+03  0.99884012671E+03  0.32517328842E+03 0.  0.
         13    1    3    3    0    0  0.13801229236E+03  0.67755707897E+02 -0.55553317802E+03  0.57641594415E+03  0.00000000000E+00 0.  1.
          3    1    3    3  501    0 -0.15958566572E+03 -0.46054143600E+02 -0.38839879140E+03  0.42242418256E+03  0.00000000000E+00 0.  1.
         21    1    1    2  502  501  0.21573373367E+02 -0.21701564297E+02 -0.20432905033E+02  0.36794998838E+02  0.00000000000E+00 0.  1.
<mgrwt>
<rscale>  1 0.30000000E+03</rscale>
<asrwt>0</asrwt>
<pdfrwt beam="1">  1        1 0.12958255E+00 0.30000000E+03</pdfrwt>
<pdfrwt beam="2">0</pdfrwt>
<totfact> 0.22999933E+01</totfact>
</mgrwt>
</event>
<event>
 6    1  0.1940992E-004  0.3000000E+03  0.7818608E-02  0.1093470E+00
          1   -1    0    0  502    0  0.00000000000E+00  0.00000000000E+00  0.37086971184E+02  0.37086971184E+02  0.00000000000E+00 0.  1.
         13   -1    0    0    0    0 -0.00000000000E+00 -0.00000000000E+00 -0.10000000000E+04  0.10000000000E+04  0.00000000000E+00 0.  1.
    9000005    2    1    2  501    0  0.15390878998E+02  0.98818115218E+01 -0.95468438188E+03  0.10170310497E+04  0.35013619884E+03 0.  0.
         13    1    3    3    0    0  0.10347612601E+03  0.67955242678E+02 -0.10946082931E+03  0.16524798581E+03  0.00000000000E+00 0.  1.
          3    1    3    3  501    0 -0.88085247011E+02 -0.58073431156E+02 -0.84522355257E+03  0.85178306391E+03  0.00000000000E+00 0.  1.
         21    1    1    2  502  501 -0.15390878998E+02 -0.98818115218E+01 -0.82286469341E+01  0.20055921461E+02  0.00000000000E+00 0. -1.
<mgrwt>
<rscale>  1 0.30000000E+03</rscale>
<asrwt>0</asrwt>
<pdfrwt beam="1">  1        1 0.13486200E+00 0.30000000E+03</pdfrwt>
<pdfrwt beam="2">0</pdfrwt>
<totfact> 0.21539032E+01</totfact>
</mgrwt>
</event>
<event>
 6    1  0.1940992E-004  0.3000000E+03  0.7818608E-02  0.1093470E+00
          1   -1    0    0  502    0  0.00000000000E+00  0.00000000000E+00  0.34599225295E+02  0.34599225295E+02  0.00000000000E+00 0.  1.
         13   -1    0    0    0    0 -0.00000000000E+00 -0.00000000000E+00 -0.10000000000E+04  0.10000000000E+04  0.00000000000E+00 0.  1.
    9000005    2    1    2  501    0 -0.19181587613E+02  0.75312002277E+01 -0.95421526753E+03  0.10111520965E+04  0.33388191489E+03 0.  0.
         13    1    3    3    0    0 -0.34646412054E+02  0.33957058771E+02 -0.97366866376E+03  0.97487646525E+03  0.00000000000E+00 0.  1.
          1    1    3    3  501    0  0.15464824441E+02 -0.26425858543E+02  0.19453396225E+02  0.36275631207E+02  0.00000000000E+00 0.  1.
         21    1    1    2  502  501  0.19181587613E+02 -0.75312002277E+01 -0.11185507175E+02  0.23447128843E+02  0.00000000000E+00 0. -1.
<mgrwt>
<rscale>  1 0.30000000E+03</rscale>
<asrwt>0</asrwt>
<pdfrwt beam="1">  1        1 0.12581563E+00 0.30000000E+03</pdfrwt>
<pdfrwt beam="2">0</pdfrwt>
<totfact> 0.24121857E+01</totfact>
</mgrwt>
</event>
<event>
 6    1  0.1940992E-004  0.3000000E+03  0.7818608E-02  0.1093470E+00
          1   -1    0    0  502    0  0.00000000000E+00  0.00000000000E+00  0.34092839498E+02  0.34092839498E+02  0.00000000000E+00 0.  1.
         13   -1    0    0    0    0 -0.00000000000E+00 -0.00000000000E+00 -0.10000000000E+04  0.10000000000E+04  0.00000000000E+00 0.  1.
    9000005    2    1    2  501    0  0.32800114438E+02 -0.38815292960E+02 -0.82149228565E+03  0.88099767121E+03  0.31420510311E+03 0.  0.
         13    1    3    3    0    0 -0.46259416024E+02 -0.14497940643E+03 -0.23661083496E+03  0.28132481064E+03  0.00000000000E+00 0.  1.
          1    1    3    3  501    0  0.79059530462E+02  0.10616411347E+03 -0.58488145069E+03  0.59967286057E+03  0.00000000000E+00 0.  1.
         21    1    1    2  502  501 -0.32800114438E+02  0.38815292960E+02 -0.14441487485E+03  0.15309516829E+03  0.00000000000E+00 0.  1.
<mgrwt>
<rscale>  1 0.30000000E+03</rscale>
<asrwt>0</asrwt>
<pdfrwt beam="1">  1        1 0.12397422E+00 0.30000000E+03</pdfrwt>
<pdfrwt beam="2">0</pdfrwt>
<totfact> 0.24695744E+01</totfact>
</mgrwt>
</event>
<event>
 6    1  0.1940992E-004  0.3000000E+03  0.7818608E-02  0.1093470E+00
          1   -1    0    0  502    0  0.00000000000E+00  0.00000000000E+00  0.38428213911E+02  0.38428213911E+02  0.00000000000E+00 0.  1.
         13   -1    0    0    0    0 -0.00000000000E+00 -0.00000000000E+00 -0.10000000000E+04  0.10000000000E+04  0.00000000000E+00 0.  1.
    9000005    2    1    2  501    0  0.10478986979E+02 -0.13632190894E+02 -0.96718722489E+03  0.10203401253E+04  0.32457233016E+03 0.  0.
         13    1    3    3    0    0 -0.94316761106E+02 -0.74293533276E+02 -0.14041196029E+03  0.18474495692E+03  0.00000000000E+00 0.  1.
          3    1    3    3  501    0  0.10479574808E+03  0.60661342382E+02 -0.82677526460E+03  0.83559516838E+03  0.00000000000E+00 0.  1.
         21    1    1    2  502  501 -0.10478986979E+02  0.13632190894E+02  0.56154388020E+01  0.18088088611E+02  0.00000000000E+00 0.  1.
<mgrwt>
<rscale>  1 0.30000000E+03</rscale>
<asrwt>0</asrwt>
<pdfrwt beam="1">  1        1 0.13973925E+00 0.30000000E+03</pdfrwt>
<pdfrwt beam="2">0</pdfrwt>
<totfact> 0.20296056E+01</totfact>
</mgrwt>
</event>
<event>
 6    1  0.1940992E-004  0.3000000E+03  0.7818608E-02  0.1093470E+00
          1   -1    0    0  502    0  0.00000000000E+00  0.00000000000E+00  0.22852029092E+02  0.22852029092E+02  0.00000000000E+00 0.  1.
         13   -1    0    0    0    0 -0.00000000000E+00 -0.00000000000E+00 -0.10000000000E+04  0.10000000000E+04  0.00000000000E+00 0.  1.
    9000005    2    1    2  501    0 -0.72504084938E+01 -0.28674539586E+02 -0.81991132828E+03  0.86285778099E+03  0.26719686808E+03 0.  0.
         13    1    3    3    0    0 -0.51345688369E+02  0.92899717028E+02 -0.58637589794E+03  0.59590555528E+03  0.00000000000E+00 0.  1.
          3    1    3    3  501    0  0.44095279876E+02 -0.12157425661E+03 -0.23353543035E+03  0.26695222570E+03  0.00000000000E+00 0.  1.
         21    1    1    2  502  501  0.72504084938E+01  0.28674539586E+02 -0.15723664262E+03  0.15999424811E+03  0.00000000000E+00 0. -1.
<mgrwt>
<rscale>  1 0.30000000E+03</rscale>
<asrwt>0</asrwt>
<pdfrwt beam="1">  1        1 0.83098463E-01 0.30000000E+03</pdfrwt>
<pdfrwt beam="2">0</pdfrwt>
<totfact> 0.44553927E+01</totfact>
</mgrwt>
</event>
<event>
 6    1  0.1940992E-004  0.3000000E+03  0.7818608E-02  0.1093470E+00
          1   -1    0    0  502    0  0.00000000000E+00  0.00000000000E+00  0.35995460384E+02  0.35995460384E+02  0.00000000000E+00 0.  1.
         13   -1    0    0    0    0 -0.00000000000E+00 -0.00000000000E+00 -0.10000000000E+04  0.10000000000E+04  0.00000000000E+00 0.  1.
    9000005    2    1    2  501    0 -0.11533641668E+02  0.62104070682E+01 -0.96865249287E+03  0.10220959095E+04  0.32591532977E+03 0.  0.
         13    1    3    3    0    0 -0.73224328087E+02 -0.14298409899E+03 -0.56381987609E+03  0.58625856707E+03  0.00000000000E+00 0.  1.
          1    1    3    3  501    0  0.61690686419E+02  0.14919450605E+03 -0.40483261678E+03  0.43583734240E+03  0.00000000000E+00 0.  1.
         21    1    1    2  502  501  0.11533641668E+02 -0.62104070682E+01  0.46479532518E+01  0.13899550911E+02  0.00000000000E+00 0.  1.
<mgrwt>
<rscale>  1 0.30000000E+03</rscale>
<asrwt>0</asrwt>
<pdfrwt beam="1">  1        1 0.13089286E+00 0.30000000E+03</pdfrwt>
<pdfrwt beam="2">0</pdfrwt>
<totfact> 0.22625518E+01</totfact>
</mgrwt>
</event>
<event>
 6    1  0.1940992E-004  0.3000000E+03  0.7818608E-02  0.1093470E+00
          1   -1    0    0  502    0  0.00000000000E+00  0.00000000000E+00  0.39715043946E+02  0.39715043946E+02  0.00000000000E+00 0.  1.
         13   -1    0    0    0    0 -0.00000000000E+00 -0.00000000000E+00 -0.10000000000E+04  0.10000000000E+04  0.00000000000E+00 0.  1.
    9000005    2    1    2  501    0 -0.17249030769E+02 -0.17796121898E+01 -0.96611858491E+03  0.10214194896E+04  0.33107696628E+03 0.  0.
         13    1    3    3    0    0 -0.23792925623E+02  0.11459636974E+03 -0.84594882908E+03  0.85400693949E+03  0.00000000000E+00 0.  1.
          1    1    3    3  501    0  0.65438948536E+01 -0.11637598193E+03 -0.12016975583E+03  0.16741255014E+03  0.00000000000E+00 0.  1.
         21    1    1    2  502  501  0.17249030769E+02  0.17796121898E+01  0.58336288584E+01  0.18295554315E+02  0.00000000000E+00 0. -1.
<mgrwt>
<rscale>  1 0.30000000E+03</rscale>
<asrwt>0</asrwt>
<pdfrwt beam="1">  1        1 0.14441865E+00 0.30000000E+03</pdfrwt>
<pdfrwt beam="2">0</pdfrwt>
<totfact> 0.19188410E+01</totfact>
</mgrwt>
</event>
<event>
 6    1  0.1940992E-004  0.3000000E+03  0.7818608E-02  0.1093470E+00
          1   -1    0    0  502    0  0.00000000000E+00  0.00000000000E+00  0.28580824699E+02  0.28580824699E+02  0.00000000000E+00 0.  1.
         13   -1    0    0    0    0 -0.00000000000E+00 -0.00000000000E+00 -0.10000000000E+04  0.10000000000E+04  0.00000000000E+00 0.  1.
    9000005    2    1    2  501    0  0.23304768118E+01 -0.95356978484E+01 -0.96390588261E+03  0.10162191815E+04  0.32169941507E+03 0.  0.
         13    1    3    3    0    0  0.14502580921E+03  0.61060693374E+02 -0.57097095727E+03  0.59225731541E+03  0.00000000000E+00 0.  1.
          1    1    3    3  501    0 -0.14269533240E+03 -0.70596391223E+02 -0.39293492534E+03  0.42396186609E+03  0.00000000000E+00 0.  1.
         21    1    1    2  502  501 -0.23304768118E+01  0.95356978484E+01 -0.75132926919E+01  0.12361643204E+02  0.00000000000E+00 0.  1.
<mgrwt>
<rscale>  1 0.30000000E+03</rscale>
<asrwt>0</asrwt>
<pdfrwt beam="1">  1        1 0.10393049E+00 0.30000000E+03</pdfrwt>
<pdfrwt beam="2">0</pdfrwt>
<totfact> 0.32339930E+01</totfact>
</mgrwt>
</event>
<event>
 6    1  0.1940992E-004  0.3000000E+03  0.7818608E-02  0.1093470E+00
          1   -1    0    0  502    0  0.00000000000E+00  0.00000000000E+00  0.63060468666E+02  0.63060468666E+02  0.00000000000E+00 0.  1.
         13   -1    0    0    0    0 -0.00000000000E+00 -0.00000000000E+00 -0.10000000000E+04  0.10000000000E+04  0.00000000000E+00 0.  1.
    9000005    2    1    2  501    0 -0.23645383616E+02  0.90242728223E+01 -0.94972865826E+03  0.10347037511E+04  0.40986191144E+03 0.  0.
         13    1    3    3    0    0  0.65422705460E+02 -0.47254775927E+02 -0.92231216301E+03  0.92583630857E+03  0.00000000000E+00 0.  1.
          1    1    3    3  501    0 -0.89068089076E+02  0.56279048749E+02 -0.27416495251E+02  0.10886744248E+03  0.00000000000E+00 0.  1.
         21    1    1    2  502  501  0.23645383616E+02 -0.90242728223E+01  0.12789126927E+02  0.28356717614E+02  0.00000000000E+00 0. -1.
<mgrwt>
<rscale>  1 0.30000000E+03</rscale>
<asrwt>0</asrwt>
<pdfrwt beam="1">  1        1 0.22931128E+00 0.30000000E+03</pdfrwt>
<pdfrwt beam="2">0</pdfrwt>
<totfact> 0.74555680E+00</totfact>
</mgrwt>
</event>
<event>
 6    1  0.1940992E-004  0.3000000E+03  0.7818608E-02  0.1093470E+00
          1   -1    0    0  502    0  0.00000000000E+00  0.00000000000E+00  0.98159662494E+02  0.98159662494E+02  0.00000000000E+00 0.  1.
         13   -1    0    0    0    0 -0.00000000000E+00 -0.00000000000E+00 -0.10000000000E+04  0.10000000000E+04  0.00000000000E+00 0.  1.
    9000005    2    1    2  501    0  0.18472108186E+03 -0.88766577923E+02 -0.59305803822E+03  0.72755489756E+03  0.36826201111E+03 0.  0.
         13    1    3    3    0    0  0.10446278034E+03  0.13186296629E+03 -0.14664398728E+03  0.22316983076E+03  0.00000000000E+00 0.  1.
          3    1    3    3  501    0  0.80258301514E+02 -0.22062954421E+03 -0.44641405094E+03  0.50438506681E+03  0.00000000000E+00 0.  1.
         21    1    1    2  502  501 -0.18472108186E+03  0.88766577923E+02 -0.30878229928E+03  0.37060476493E+03  0.00000000000E+00 0.  1.
<mgrwt>
<rscale>  1 0.30000000E+03</rscale>
<asrwt>0</asrwt>
<pdfrwt beam="1">  1        1 0.35694498E+00 0.30000000E+03</pdfrwt>
<pdfrwt beam="2">0</pdfrwt>
<totfact> 0.18124233E+00</totfact>
</mgrwt>
</event>
<event>
 6    1  0.1940992E-004  0.3000000E+03  0.7818608E-02  0.1093470E+00
          1   -1    0    0  502    0  0.00000000000E+00  0.00000000000E+00  0.62546956892E+02  0.62546956892E+02  0.00000000000E+00 0.  1.
         13   -1    0    0    0    0 -0.00000000000E+00 -0.00000000000E+00 -0.10000000000E+04  0.10000000000E+04  0.00000000000E+00 0.  1.
    9000005    2    1    2  501    0  0.19812208199E+01  0.21474561003E+02 -0.96935481384E+03  0.10240397500E+04  0.32945951568E+03 0.  0.
         13    1    3    3    0    0  0.74602314644E+01 -0.12131831583E+03 -0.15365340689E+03  0.19591620213E+03  0.00000000000E+00 0.  1.
          1    1    3    3  501    0 -0.54790106445E+01  0.14279287684E+03 -0.81570140696E+03  0.82812354787E+03  0.00000000000E+00 0.  1.
         21    1    1    2  502  501 -0.19812208199E+01 -0.21474561003E+02  0.31901770734E+02  0.38507206886E+02  0.00000000000E+00 0.  1.
<mgrwt>
<rscale>  1 0.30000000E+03</rscale>
<asrwt>0</asrwt>
<pdfrwt beam="1">  1        1 0.22744396E+00 0.30000000E+03</pdfrwt>
<pdfrwt beam="2">0</pdfrwt>
<totfact> 0.76071978E+00</totfact>
</mgrwt>
</event>
<event>
 6    1  0.1940992E-004  0.3000000E+03  0.7818608E-02  0.1093470E+00
          1   -1    0    0  502    0  0.00000000000E+00  0.00000000000E+00  0.36315317403E+02  0.36315317403E+02  0.00000000000E+00 0.  1.
         13   -1    0    0    0    0 -0.00000000000E+00 -0.00000000000E+00 -0.10000000000E+04  0.10000000000E+04  0.00000000000E+00 0.  1.
    9000005    2    1    2  501    0 -0.20035513500E+02 -0.50709481920E+01 -0.92254707099E+03  0.99027794774E+03  0.35934687875E+03 0.  0.
         13    1    3    3    0    0  0.84055321002E+02  0.41780496123E+02 -0.84969132978E+03  0.85486037618E+03  0.00000000000E+00 0.  1.
          3    1    3    3  501    0 -0.10409083450E+03 -0.46851444315E+02 -0.72855741207E+02  0.13541757157E+03  0.00000000000E+00 0.  1.
         21    1    1    2  502  501  0.20035513500E+02  0.50709481920E+01 -0.41137611605E+02  0.46037369661E+02  0.00000000000E+00 0.  1.
<mgrwt>
<rscale>  1 0.30000000E+03</rscale>
<asrwt>0</asrwt>
<pdfrwt beam="1">  1        1 0.13205598E+00 0.30000000E+03</pdfrwt>
<pdfrwt beam="2">0</pdfrwt>
<totfact> 0.22299802E+01</totfact>
</mgrwt>
</event>
<event>
 6    1  0.1940992E-004  0.3000000E+03  0.7818608E-02  0.1093470E+00
          1   -1    0    0  502    0  0.00000000000E+00  0.00000000000E+00  0.34115068488E+02  0.34115068488E+02  0.00000000000E+00 0.  1.
         13   -1    0    0    0    0 -0.00000000000E+00 -0.00000000000E+00 -0.10000000000E+04  0.10000000000E+04  0.00000000000E+00 0.  1.
    9000005    2    1    2  501    0 -0.20658682438E+02 -0.26833700149E+01 -0.95483306703E+03  0.10105327585E+04  0.33020643320E+03 0.  0.
         13    1    3    3    0    0 -0.42460748627E+02  0.72708257105E+02 -0.41565653372E+02  0.93899464138E+02  0.00000000000E+00 0.  1.
          3    1    3    3  501    0  0.21802066189E+02 -0.75391627120E+02 -0.91326741366E+03  0.91663329438E+03  0.00000000000E+00 0.  1.
         21    1    1    2  502  501  0.20658682438E+02  0.26833700149E+01 -0.11051864485E+02  0.23582309965E+02  0.00000000000E+00 0.  1.
<mgrwt>
<rscale>  1 0.30000000E+03</rscale>
<asrwt>0</asrwt>
<pdfrwt beam="1">  1        1 0.12405506E+00 0.30000000E+03</pdfrwt>
<pdfrwt beam="2">0</pdfrwt>
<totfact> 0.24670189E+01</totfact>
</mgrwt>
</event>
<event>
 6    1  0.1940992E-004  0.3000000E+03  0.7818608E-02  0.1093470E+00
          1   -1    0    0  502    0  0.00000000000E+00  0.00000000000E+00  0.41435996543E+02  0.41435996543E+02  0.00000000000E+00 0.  1.
         13   -1    0    0    0    0 -0.00000000000E+00 -0.00000000000E+00 -0.10000000000E+04  0.10000000000E+04  0.00000000000E+00 0.  1.
    9000005    2    1    2  501    0  0.99998033340E+01  0.17250631221E+02 -0.96566444892E+03  0.10202700647E+04  0.32870290038E+03 0.  0.
         13    1    3    3    0    0 -0.13877908943E+03 -0.28913751471E+02 -0.68268089349E+03  0.69724374721E+03  0.00000000000E+00 0.  1.
          1    1    3    3  501    0  0.14877889277E+03  0.46164382692E+02 -0.28298355543E+03  0.32302631751E+03  0.00000000000E+00 0.  1.
         21    1    1    2  502  501 -0.99998033340E+01 -0.17250631221E+02  0.71004454592E+01  0.21165931823E+02  0.00000000000E+00 0. -1.
<mgrwt>
<rscale>  1 0.30000000E+03</rscale>
<asrwt>0</asrwt>
<pdfrwt beam="1">  1        1 0.15067667E+00 0.30000000E+03</pdfrwt>
<pdfrwt beam="2">0</pdfrwt>
<totfact> 0.17823320E+01</totfact>
</mgrwt>
</event>
<event>
 6    1  0.1940992E-004  0.3000000E+03  0.7818608E-02  0.1093470E+00
          1   -1    0    0  502    0  0.00000000000E+00  0.00000000000E+00  0.42136034935E+02  0.42136034935E+02  0.00000000000E+00 0.  1.
         13   -1    0    0    0    0 -0.00000000000E+00 -0.00000000000E+00 -0.10000000000E+04  0.10000000000E+04  0.00000000000E+00 0.  1.
    9000005    2    1    2  501    0  0.11684775346E+01 -0.10962417732E+02 -0.97515193320E+03  0.10216320406E+04  0.30444899998E+03 0.  0.
         13    1    3    3    0    0  0.13491136696E+03 -0.35018909707E+02 -0.27378787294E+03  0.30722499953E+03  0.00000000000E+00 0.  1.
          3    1    3    3  501    0 -0.13374288942E+03  0.24056491975E+02 -0.70136406026E+03  0.71440704105E+03  0.00000000000E+00 0.  1.
         21    1    1    2  502  501 -0.11684775346E+01  0.10962417732E+02  0.17287968132E+02  0.20503994352E+02  0.00000000000E+00 0. -1.
<mgrwt>
<rscale>  1 0.30000000E+03</rscale>
<asrwt>0</asrwt>
<pdfrwt beam="1">  1        1 0.15322227E+00 0.30000000E+03</pdfrwt>
<pdfrwt beam="2">0</pdfrwt>
<totfact> 0.17302626E+01</totfact>
</mgrwt>
</event>
<event>
 6    1  0.1940992E-004  0.3000000E+03  0.7818608E-02  0.1093470E+00
          1   -1    0    0  502    0  0.00000000000E+00  0.00000000000E+00  0.29788214854E+02  0.29788214854E+02  0.00000000000E+00 0.  1.
         13   -1    0    0    0    0 -0.00000000000E+00 -0.00000000000E+00 -0.10000000000E+04  0.10000000000E+04  0.00000000000E+00 0.  1.
    9000005    2    1    2  501    0 -0.69788620033E-01 -0.10254730254E+02 -0.96264004005E+03  0.10170408352E+04  0.32801074600E+03 0.  0.
         13    1    3    3    0    0  0.95225006461E+02  0.12436397081E+03 -0.36792903119E+03  0.39988244658E+03  0.00000000000E+00 0.  1.
          3    1    3    3  501    0 -0.95294795081E+02 -0.13461870106E+03 -0.59471100886E+03  0.61715838867E+03  0.00000000000E+00 0.  1.
         21    1    1    2  502  501  0.69788620033E-01  0.10254730254E+02 -0.75717450948E+01  0.12747379605E+02  0.00000000000E+00 0. -1.
<mgrwt>
<rscale>  1 0.30000000E+03</rscale>
<asrwt>0</asrwt>
<pdfrwt beam="1">  1        1 0.10832101E+00 0.30000000E+03</pdfrwt>
<pdfrwt beam="2">0</pdfrwt>
<totfact> 0.30405622E+01</totfact>
</mgrwt>
</event>
<event>
 6    1  0.1940992E-004  0.3000000E+03  0.7818608E-02  0.1093470E+00
          1   -1    0    0  502    0  0.00000000000E+00  0.00000000000E+00  0.26794207925E+02  0.26794207925E+02  0.00000000000E+00 0.  1.
         13   -1    0    0    0    0 -0.00000000000E+00 -0.00000000000E+00 -0.10000000000E+04  0.10000000000E+04  0.00000000000E+00 0.  1.
    9000005    2    1    2  501    0 -0.79049106239E+01  0.64830678561E+01 -0.95373212968E+03  0.10048000881E+04  0.31609132230E+03 0.  0.
         13    1    3    3    0    0  0.22434687019E+02  0.12955544396E+03 -0.19269776350E+03  0.23328171017E+03  0.00000000000E+00 0.  1.
          1    1    3    3  501    0 -0.30339597643E+02 -0.12307237610E+03 -0.76103436618E+03  0.77151837791E+03  0.00000000000E+00 0.  1.
         21    1    1    2  502  501  0.79049106239E+01 -0.64830678561E+01 -0.19473662396E+02  0.21994119849E+02  0.00000000000E+00 0. -1.
<mgrwt>
<rscale>  1 0.30000000E+03</rscale>
<asrwt>0</asrwt>
<pdfrwt beam="1">  1        1 0.97433689E-01 0.30000000E+03</pdfrwt>
<pdfrwt beam="2">0</pdfrwt>
<totfact> 0.35547658E+01</totfact>
</mgrwt>
</event>
<event>
 6    1  0.1940992E-004  0.3000000E+03  0.7818608E-02  0.1093470E+00
          1   -1    0    0  502    0  0.00000000000E+00  0.00000000000E+00  0.30499852478E+02  0.30499852478E+02  0.00000000000E+00 0.  1.
         13   -1    0    0    0    0 -0.00000000000E+00 -0.00000000000E+00 -0.10000000000E+04  0.10000000000E+04  0.00000000000E+00 0.  1.
    9000005    2    1    2  501    0  0.16026993667E+02  0.50419095309E+01 -0.96306525714E+03  0.10125083769E+04  0.31208370430E+03 0.  0.
         13    1    3    3    0    0 -0.12906803857E+02  0.83219159128E+02 -0.54907426336E+02  0.10053277823E+03  0.00000000000E+00 0.  1.
          3    1    3    3  501    0  0.28933797524E+02 -0.78177249597E+02 -0.90815783081E+03  0.91197559871E+03  0.00000000000E+00 0.  1.
         21    1    1    2  502  501 -0.16026993667E+02 -0.50419095309E+01 -0.64348903809E+01  0.17991475535E+02  0.00000000000E+00 0.  1.
<mgrwt>
<rscale>  1 0.30000000E+03</rscale>
<asrwt>0</asrwt>
<pdfrwt beam="1">  1        1 0.11090879E+00 0.30000000E+03</pdfrwt>
<pdfrwt beam="2">0</pdfrwt>
<totfact> 0.29342342E+01</totfact>
</mgrwt>
</event>
<event>
 6    1  0.1940992E-004  0.3000000E+03  0.7818608E-02  0.1093470E+00
          1   -1    0    0  502    0  0.00000000000E+00  0.00000000000E+00  0.48617487774E+02  0.48617487774E+02  0.00000000000E+00 0.  1.
         13   -1    0    0    0    0 -0.00000000000E+00 -0.00000000000E+00 -0.10000000000E+04  0.10000000000E+04  0.00000000000E+00 0.  1.
    9000005    2    1    2  501    0  0.50776129164E+02  0.11955564842E+02 -0.93884178035E+03  0.99496657185E+03  0.32528977811E+03 0.  0.
         13    1    3    3    0    0 -0.11901602115E+03  0.56667819005E+02 -0.58858310878E+03  0.60316343635E+03  0.00000000000E+00 0.  1.
          1    1    3    3  501    0  0.16979215032E+03 -0.44712254162E+02 -0.35025867157E+03  0.39180313550E+03  0.00000000000E+00 0.  1.
         21    1    1    2  502  501 -0.50776129164E+02 -0.11955564842E+02 -0.12540731877E+02  0.53650915925E+02  0.00000000000E+00 0.  1.
<mgrwt>
<rscale>  1 0.30000000E+03</rscale>
<asrwt>0</asrwt>
<pdfrwt beam="1">  1        1 0.17679124E+00 0.30000000E+03</pdfrwt>
<pdfrwt beam="2">0</pdfrwt>
<totfact> 0.13239989E+01</totfact>
</mgrwt>
</event>
<event>
 6    1  0.1940992E-004  0.3000000E+03  0.7818608E-02  0.1093470E+00
          1   -1    0    0  502    0  0.00000000000E+00  0.00000000000E+00  0.31163528270E+02  0.31163528270E+02  0.00000000000E+00 0.  1.
         13   -1    0    0    0    0 -0.00000000000E+00 -0.00000000000E+00 -0.10000000000E+04  0.10000000000E+04  0.00000000000E+00 0.  1.
    9000005    2    1    2  501    0 -0.13143417922E+02 -0.21240541118E+02 -0.91781118228E+03  0.97435252418E+03  0.32613120833E+03 0.  0.
         13    1    3    3    0    0  0.53758052580E+02  0.94572559487E+02 -0.10701117341E+03  0.15259517836E+03  0.00000000000E+00 0.  1.
          3    1    3    3  501    0 -0.66901470502E+02 -0.11581310060E+03 -0.81080000887E+03  0.82175734582E+03  0.00000000000E+00 0.  1.
         21    1    1    2  502  501  0.13143417922E+02  0.21240541118E+02 -0.51025289455E+02  0.56811004089E+02  0.00000000000E+00 0.  1.
<mgrwt>
<rscale>  1 0.30000000E+03</rscale>
<asrwt>0</asrwt>
<pdfrwt beam="1">  1        1 0.11332216E+00 0.30000000E+03</pdfrwt>
<pdfrwt beam="2">0</pdfrwt>
<totfact> 0.28397629E+01</totfact>
</mgrwt>
</event>
<event>
 6    1  0.1940992E-004  0.3000000E+03  0.7818608E-02  0.1093470E+00
          1   -1    0    0  502    0  0.00000000000E+00  0.00000000000E+00  0.31487649601E+02  0.31487649601E+02  0.00000000000E+00 0.  1.
         13   -1    0    0    0    0 -0.00000000000E+00 -0.00000000000E+00 -0.10000000000E+04  0.10000000000E+04  0.00000000000E+00 0.  1.
    9000005    2    1    2  501    0 -0.12175005921E+02 -0.62562843621E+01 -0.96947352841E+03  0.10177655606E+04  0.30948415501E+03 0.  0.
         13    1    3    3    0    0  0.59214383816E+01  0.58571978731E+02 -0.94394689120E+03  0.94578088029E+03  0.00000000000E+00 0.  1.
          1    1    3    3  501    0 -0.18096444303E+02 -0.64828263094E+02 -0.25526637213E+02  0.71984680311E+02  0.00000000000E+00 0.  1.
         21    1    1    2  502  501  0.12175005921E+02  0.62562843621E+01  0.96117801291E+00  0.13722088995E+02  0.00000000000E+00 0. -1.
<mgrwt>
<rscale>  1 0.30000000E+03</rscale>
<asrwt>0</asrwt>
<pdfrwt beam="1">  1        1 0.11450079E+00 0.30000000E+03</pdfrwt>
<pdfrwt beam="2">0</pdfrwt>
<totfact> 0.27951932E+01</totfact>
</mgrwt>
</event>
<event>
 6    1  0.1940992E-004  0.3000000E+03  0.7818608E-02  0.1093470E+00
          1   -1    0    0  502    0  0.00000000000E+00  0.00000000000E+00  0.38875975818E+02  0.38875975818E+02  0.00000000000E+00 0.  1.
         13   -1    0    0    0    0 -0.00000000000E+00 -0.00000000000E+00 -0.10000000000E+04  0.10000000000E+04  0.00000000000E+00 0.  1.
    9000005    2    1    2  501    0  0.21892419832E+01 -0.95498110521E+01 -0.95969513853E+03  0.10289747948E+04  0.37105037086E+03 0.  0.
         13    1    3    3    0    0 -0.54559520434E+02 -0.13451356017E+03 -0.15382502283E+03  0.21150124536E+03  0.00000000000E+00 0.  1.
          3    1    3    3  501    0  0.56748762418E+02  0.12496374912E+03 -0.80587011571E+03  0.81747354943E+03  0.00000000000E+00 0.  1.
         21    1    1    2  502  501 -0.21892419832E+01  0.95498110521E+01 -0.14288856491E+01  0.99011810301E+01  0.00000000000E+00 0. -1.
<mgrwt>
<rscale>  1 0.30000000E+03</rscale>
<asrwt>0</asrwt>
<pdfrwt beam="1">  1        1 0.14136748E+00 0.30000000E+03</pdfrwt>
<pdfrwt beam="2">0</pdfrwt>
<totfact> 0.19901658E+01</totfact>
</mgrwt>
</event>
<event>
 6    1  0.1940992E-004  0.3000000E+03  0.7818608E-02  0.1093470E+00
          1   -1    0    0  502    0  0.00000000000E+00  0.00000000000E+00  0.34521447032E+02  0.34521447032E+02  0.00000000000E+00 0.  1.
         13   -1    0    0    0    0 -0.00000000000E+00 -0.00000000000E+00 -0.10000000000E+04  0.10000000000E+04  0.00000000000E+00 0.  1.
    9000005    2    1    2  501    0 -0.28680232020E+02  0.80946589329E+01 -0.94172431825E+03  0.99641183041E+03  0.32419710823E+03 0.  0.
         13    1    3    3    0    0 -0.14540818915E+03  0.21972971034E+02 -0.21649890710E+03  0.26172147352E+03  0.00000000000E+00 0.  1.
          3    1    3    3  501    0  0.11672795713E+03 -0.13878312101E+02 -0.72522541115E+03  0.73469035689E+03  0.00000000000E+00 0.  1.
         21    1    1    2  502  501  0.28680232020E+02 -0.80946589329E+01 -0.23754234715E+02  0.38109616620E+02  0.00000000000E+00 0. -1.
<mgrwt>
<rscale>  1 0.30000000E+03</rscale>
<asrwt>0</asrwt>
<pdfrwt beam="1">  1        1 0.12553280E+00 0.30000000E+03</pdfrwt>
<pdfrwt beam="2">0</pdfrwt>
<totfact> 0.24208895E+01</totfact>
</mgrwt>
</event>
<event>
 6    1  0.1940992E-004  0.3000000E+03  0.7818608E-02  0.1093470E+00
          1   -1    0    0  502    0  0.00000000000E+00  0.00000000000E+00  0.31950142527E+02  0.31950142527E+02  0.00000000000E+00 0.  1.
         13   -1    0    0    0    0 -0.00000000000E+00 -0.00000000000E+00 -0.10000000000E+04  0.10000000000E+04  0.00000000000E+00 0.  1.
    9000005    2    1    2  501    0  0.12309286526E+02 -0.83289435663E+01 -0.96167222791E+03  0.10157772023E+04  0.32675520043E+03 0.  0.
         13    1    3    3    0    0  0.40299919805E+02  0.91061827352E+02 -0.79069016270E+02  0.12715443079E+03  0.00000000000E+00 0.  1.
          1    1    3    3  501    0 -0.27990633279E+02 -0.99390770918E+02 -0.88260321164E+03  0.88862277154E+03  0.00000000000E+00 0.  1.
         21    1    1    2  502  501 -0.12309286526E+02  0.83289435663E+01 -0.63776295618E+01  0.16172940195E+02  0.00000000000E+00 0.  1.
<mgrwt>
<rscale>  1 0.30000000E+03</rscale>
<asrwt>0</asrwt>
<pdfrwt beam="1">  1        1 0.11618258E+00 0.30000000E+03</pdfrwt>
<pdfrwt beam="2">0</pdfrwt>
<totfact> 0.27332827E+01</totfact>
</mgrwt>
</event>
<event>
 6    1  0.1940992E-004  0.3000000E+03  0.7818608E-02  0.1093470E+00
          1   -1    0    0  502    0  0.00000000000E+00  0.00000000000E+00  0.38881320022E+02  0.38881320022E+02  0.00000000000E+00 0.  1.
         13   -1    0    0    0    0 -0.00000000000E+00 -0.00000000000E+00 -0.10000000000E+04  0.10000000000E+04  0.00000000000E+00 0.  1.
    9000005    2    1    2  501    0 -0.17445614463E+02 -0.39565239691E+02 -0.92367387147E+03  0.98168104607E+03  0.32962781698E+03 0.  0.
         13    1    3    3    0    0 -0.10562890235E+03 -0.13683578158E+03 -0.71127261917E+03  0.73197693605E+03  0.00000000000E+00 0.  1.
          1    1    3    3  501    0  0.88183287888E+02  0.97270541888E+02 -0.21240125230E+03  0.24970411002E+03  0.00000000000E+00 0.  1.
         21    1    1    2  502  501  0.17445614463E+02  0.39565239691E+02 -0.37444808508E+02  0.57200273950E+02  0.00000000000E+00 0.  1.
<mgrwt>
<rscale>  1 0.30000000E+03</rscale>
<asrwt>0</asrwt>
<pdfrwt beam="1">  1        1 0.14138692E+00 0.30000000E+03</pdfrwt>
<pdfrwt beam="2">0</pdfrwt>
<totfact> 0.19897010E+01</totfact>
</mgrwt>
</event>
<event>
 6    1  0.1940992E-004  0.3000000E+03  0.7818608E-02  0.1093470E+00
          1   -1    0    0  502    0  0.00000000000E+00  0.00000000000E+00  0.30242756463E+02  0.30242756463E+02  0.00000000000E+00 0.  1.
         13   -1    0    0    0    0 -0.00000000000E+00 -0.00000000000E+00 -0.10000000000E+04  0.10000000000E+04  0.00000000000E+00 0.  1.
    9000005    2    1    2  501    0  0.30282739786E+02 -0.14534979999E+02 -0.83276928611E+03  0.88919662765E+03  0.30989941718E+03 0.  0.
         13    1    3    3    0    0  0.81801924982E+02 -0.66354986692E+02 -0.80367081807E+03  0.81054384398E+03  0.00000000000E+00 0.  1.
          1    1    3    3  501    0 -0.51519185196E+02  0.51820006692E+02 -0.29098468031E+02  0.78652783667E+02  0.00000000000E+00 0.  1.
         21    1    1    2  502  501 -0.30282739786E+02  0.14534979999E+02 -0.13698795743E+03  0.14104612882E+03  0.00000000000E+00 0. -1.
<mgrwt>
<rscale>  1 0.30000000E+03</rscale>
<asrwt>0</asrwt>
<pdfrwt beam="1">  1        1 0.10997389E+00 0.30000000E+03</pdfrwt>
<pdfrwt beam="2">0</pdfrwt>
<totfact> 0.29720290E+01</totfact>
</mgrwt>
</event>
<event>
 6    1  0.1940992E-004  0.3000000E+03  0.7818608E-02  0.1093470E+00
          1   -1    0    0  502    0  0.00000000000E+00  0.00000000000E+00  0.33844606810E+02  0.33844606810E+02  0.00000000000E+00 0.  1.
         13   -1    0    0    0    0 -0.00000000000E+00 -0.00000000000E+00 -0.10000000000E+04  0.10000000000E+04  0.00000000000E+00 0.  1.
    9000005    2    1    2  501    0 -0.24531338070E+01  0.14845271094E+02 -0.96564313249E+03  0.10187892971E+04  0.32440495161E+03 0.  0.
         13    1    3    3    0    0  0.11483512037E+03  0.95177487304E+02 -0.26705090277E+03  0.30587913239E+03  0.00000000000E+00 0.  1.
          1    1    3    3  501    0 -0.11728825418E+03 -0.80332216210E+02 -0.69859222972E+03  0.71291016472E+03  0.00000000000E+00 0.  1.
         21    1    1    2  502  501  0.24531338070E+01 -0.14845271094E+02 -0.51226069915E+00  0.15055309706E+02  0.00000000000E+00 0. -1.
<mgrwt>
<rscale>  1 0.30000000E+03</rscale>
<asrwt>0</asrwt>
<pdfrwt beam="1">  1        1 0.12307156E+00 0.30000000E+03</pdfrwt>
<pdfrwt beam="2">0</pdfrwt>
<totfact> 0.24983456E+01</totfact>
</mgrwt>
</event>
<event>
 6    1  0.1940992E-004  0.3000000E+03  0.7818608E-02  0.1093470E+00
          1   -1    0    0  502    0  0.00000000000E+00  0.00000000000E+00  0.34512386159E+02  0.34512386159E+02  0.00000000000E+00 0.  1.
         13   -1    0    0    0    0 -0.00000000000E+00 -0.00000000000E+00 -0.10000000000E+04  0.10000000000E+04  0.00000000000E+00 0.  1.
    9000005    2    1    2  501    0  0.15058019111E+02 -0.45186477864E+01 -0.96434031587E+03  0.10187491882E+04  0.32810135861E+03 0.  0.
         13    1    3    3    0    0 -0.11145622612E+03 -0.80207560809E+02 -0.21547237002E+03  0.25550750555E+03  0.00000000000E+00 0.  1.
          3    1    3    3  501    0  0.12651424523E+03  0.75688913023E+02 -0.74886794586E+03  0.76324168265E+03  0.00000000000E+00 0.  1.
         21    1    1    2  502  501 -0.15058019111E+02  0.45186477864E+01 -0.11472979708E+01  0.15763197963E+02  0.00000000000E+00 0.  1.
<mgrwt>
<rscale>  1 0.30000000E+03</rscale>
<asrwt>0</asrwt>
<pdfrwt beam="1">  1        1 0.12549985E+00 0.30000000E+03</pdfrwt>
<pdfrwt beam="2">0</pdfrwt>
<totfact> 0.24219060E+01</totfact>
</mgrwt>
</event>
<event>
 6    1  0.1940992E-004  0.3000000E+03  0.7818608E-02  0.1093470E+00
          3   -1    0    0  502    0  0.00000000000E+00  0.00000000000E+00  0.29263095145E+02  0.29263095145E+02  0.00000000000E+00 0.  1.
         13   -1    0    0    0    0 -0.00000000000E+00 -0.00000000000E+00 -0.10000000000E+04  0.10000000000E+04  0.00000000000E+00 0.  1.
    9000005    2    1    2  501    0  0.10536304603E+02 -0.35031433303E+01 -0.96789622987E+03  0.10178020672E+04  0.31460236872E+03 0.  0.
         13    1    3    3    0    0  0.84834514001E+02  0.94341498331E+02 -0.17904342678E+03  0.21943965400E+03  0.00000000000E+00 0.  1.
          3    1    3    3  501    0 -0.74298209398E+02 -0.97844641661E+02 -0.78885280309E+03  0.79836241317E+03  0.00000000000E+00 0.  1.
         21    1    1    2  502  501 -0.10536304603E+02  0.35031433303E+01 -0.28406749819E+01  0.11461027975E+02  0.00000000000E+00 0.  1.
<mgrwt>
<rscale>  1 0.30000000E+03</rscale>
<asrwt>0</asrwt>
<pdfrwt beam="1">  1        3 0.10641148E+00 0.30000000E+03</pdfrwt>
<pdfrwt beam="2">0</pdfrwt>
<totfact> 0.33110133E+00</totfact>
</mgrwt>
</event>
<event>
 6    1  0.1940992E-004  0.3000000E+03  0.7818608E-02  0.1093470E+00
          1   -1    0    0  502    0  0.00000000000E+00  0.00000000000E+00  0.35030691024E+02  0.35030691024E+02  0.00000000000E+00 0.  1.
         13   -1    0    0    0    0 -0.00000000000E+00 -0.00000000000E+00 -0.10000000000E+04  0.10000000000E+04  0.00000000000E+00 0.  1.
    9000005    2    1    2  501    0  0.45565112249E+02 -0.71739920313E+01 -0.90438520922E+03  0.95888557458E+03  0.31531142202E+03 0.  0.
         13    1    3    3    0    0 -0.76277483488E+02  0.10740763729E+03 -0.56972263194E+03  0.58475510463E+03  0.00000000000E+00 0.  1.
          3    1    3    3  501    0  0.12184259574E+03 -0.11458162933E+03 -0.33466257728E+03  0.37413046995E+03  0.00000000000E+00 0.  1.
         21    1    1    2  502  501 -0.45565112249E+02  0.71739920313E+01 -0.60584099752E+02  0.76145116447E+02  0.00000000000E+00 0. -1.
<mgrwt>
<rscale>  1 0.30000000E+03</rscale>
<asrwt>0</asrwt>
<pdfrwt beam="1">  1        1 0.12738460E+00 0.30000000E+03</pdfrwt>
<pdfrwt beam="2">0</pdfrwt>
<totfact> 0.23646206E+01</totfact>
</mgrwt>
</event>
<event>
 6    1  0.1940992E-004  0.3000000E+03  0.7818608E-02  0.1093470E+00
          1   -1    0    0  502    0  0.00000000000E+00  0.00000000000E+00  0.21904111326E+02  0.21904111326E+02  0.00000000000E+00 0.  1.
         13   -1    0    0    0    0 -0.00000000000E+00 -0.00000000000E+00 -0.10000000000E+04  0.10000000000E+04  0.00000000000E+00 0.  1.
    9000005    2    1    2  501    0  0.87191448100E+01 -0.12799094457E+02 -0.95902154808E+03  0.99733439879E+03  0.27333812946E+03 0.  0.
         13    1    3    3    0    0  0.74506502164E+02  0.35793503526E+02 -0.87911234015E+03  0.88298975100E+03  0.00000000000E+00 0.  1.
          3    1    3    3  501    0 -0.65787357354E+02 -0.48592597983E+02 -0.79909207932E+02  0.11434464779E+03  0.00000000000E+00 0.  1.
         21    1    1    2  502  501 -0.87191448100E+01  0.12799094457E+02 -0.19074340590E+02  0.24569712535E+02  0.00000000000E+00 0. -1.
<mgrwt>
<rscale>  1 0.30000000E+03</rscale>
<asrwt>0</asrwt>
<pdfrwt beam="1">  1        1 0.79651482E-01 0.30000000E+03</pdfrwt>
<pdfrwt beam="2">0</pdfrwt>
<totfact> 0.47250058E+01</totfact>
</mgrwt>
</event>
<event>
 6    1  0.1940992E-004  0.3000000E+03  0.7818608E-02  0.1093470E+00
          1   -1    0    0  502    0  0.00000000000E+00  0.00000000000E+00  0.29294918078E+02  0.29294918078E+02  0.00000000000E+00 0.  1.
         13   -1    0    0    0    0 -0.00000000000E+00 -0.00000000000E+00 -0.10000000000E+04  0.10000000000E+04  0.00000000000E+00 0.  1.
    9000005    2    1    2  501    0  0.76733836279E+00 -0.10535965023E+02 -0.95177508548E+03  0.10076168155E+04  0.33061191467E+03 0.  0.
         13    1    3    3    0    0  0.79566215608E+02  0.10506026743E+03 -0.17901018781E+03  0.22229055266E+03  0.00000000000E+00 0.  1.
          1    1    3    3  501    0 -0.78798877245E+02 -0.11559623245E+03 -0.77276489767E+03  0.78532626282E+03  0.00000000000E+00 0.  1.
         21    1    1    2  502  501 -0.76733836279E+00  0.10535965023E+02 -0.18929996441E+02  0.21678102601E+02  0.00000000000E+00 0. -1.
<mgrwt>
<rscale>  1 0.30000000E+03</rscale>
<asrwt>0</asrwt>
<pdfrwt beam="1">  1        1 0.10652720E+00 0.30000000E+03</pdfrwt>
<pdfrwt beam="2">0</pdfrwt>
<totfact> 0.31175230E+01</totfact>
</mgrwt>
</event>
<event>
 6    1  0.1940992E-004  0.3000000E+03  0.7818608E-02  0.1093470E+00
          1   -1    0    0  502    0  0.00000000000E+00  0.00000000000E+00  0.53565541352E+02  0.53565541352E+02  0.00000000000E+00 0.  1.
         13   -1    0    0    0    0 -0.00000000000E+00 -0.00000000000E+00 -0.10000000000E+04  0.10000000000E+04  0.00000000000E+00 0.  1.
    9000005    2    1    2  501    0  0.61580489822E+01  0.14658130325E+02 -0.97323806973E+03  0.10224012041E+04  0.31282439060E+03 0.  0.
         13    1    3    3    0    0 -0.46102095913E+02  0.14621142741E+03 -0.33145160070E+03  0.36518946912E+03  0.00000000000E+00 0.  1.
          3    1    3    3  501    0  0.52260144896E+02 -0.13155329708E+03 -0.64178646902E+03  0.65721173494E+03  0.00000000000E+00 0.  1.
         21    1    1    2  502  501 -0.61580489822E+01 -0.14658130325E+02  0.26803611077E+02  0.31164337289E+02  0.00000000000E+00 0.  1.
<mgrwt>
<rscale>  1 0.30000000E+03</rscale>
<asrwt>0</asrwt>
<pdfrwt beam="1">  1        1 0.19478420E+00 0.30000000E+03</pdfrwt>
<pdfrwt beam="2">0</pdfrwt>
<totfact> 0.10846416E+01</totfact>
</mgrwt>
</event>
<event>
 6    1  0.1940992E-004  0.3000000E+03  0.7818608E-02  0.1093470E+00
          1   -1    0    0  502    0  0.00000000000E+00  0.00000000000E+00  0.38342528251E+02  0.38342528251E+02  0.00000000000E+00 0.  1.
         13   -1    0    0    0    0 -0.00000000000E+00 -0.00000000000E+00 -0.10000000000E+04  0.10000000000E+04  0.00000000000E+00 0.  1.
    9000005    2    1    2  501    0  0.34279496304E+02  0.15303835819E+01 -0.94357846057E+03  0.99955752360E+03  0.32802058745E+03 0.  0.
         13    1    3    3    0    0  0.15063291431E+03 -0.95408030600E+02 -0.51978722382E+03  0.54951954035E+03  0.00000000000E+00 0.  1.
          3    1    3    3  501    0 -0.11635341800E+03  0.96938414182E+02 -0.42379123675E+03  0.45003798325E+03  0.00000000000E+00 0.  1.
         21    1    1    2  502  501 -0.34279496304E+02 -0.15303835819E+01 -0.18079011183E+02  0.38785004656E+02  0.00000000000E+00 0.  1.
<mgrwt>
<rscale>  1 0.30000000E+03</rscale>
<asrwt>0</asrwt>
<pdfrwt beam="1">  1        1 0.13942767E+00 0.30000000E+03</pdfrwt>
<pdfrwt beam="2">0</pdfrwt>
<totfact> 0.20372661E+01</totfact>
</mgrwt>
</event>
<event>
 6    1  0.1940992E-004  0.3000000E+03  0.7818608E-02  0.1093470E+00
          1   -1    0    0  502    0  0.00000000000E+00  0.00000000000E+00  0.47854964254E+02  0.47854964254E+02  0.00000000000E+00 0.  1.
         13   -1    0    0    0    0 -0.00000000000E+00 -0.00000000000E+00 -0.10000000000E+04  0.10000000000E+04  0.00000000000E+00 0.  1.
    9000005    2    1    2  501    0  0.77492802617E+02  0.15574728417E+02 -0.86985996344E+03  0.93375614854E+03  0.33014615296E+03 0.  0.
         13    1    3    3    0    0 -0.70366457553E+02 -0.11984303003E+03 -0.35771265593E+03  0.38376051700E+03  0.00000000000E+00 0.  1.
          1    1    3    3  501    0  0.14785926017E+03  0.13541775845E+03 -0.51214730751E+03  0.54999563154E+03  0.00000000000E+00 0.  1.
         21    1    1    2  502  501 -0.77492802617E+02 -0.15574728417E+02 -0.82285072302E+02  0.11409881571E+03  0.00000000000E+00 0.  1.
<mgrwt>
<rscale>  1 0.30000000E+03</rscale>
<asrwt>0</asrwt>
<pdfrwt beam="1">  1        1 0.17401842E+00 0.30000000E+03</pdfrwt>
<pdfrwt beam="2">0</pdfrwt>
<totfact> 0.13657105E+01</totfact>
</mgrwt>
</event>
<event>
 6    1  0.1940992E-004  0.3000000E+03  0.7818608E-02  0.1093470E+00
          1   -1    0    0  502    0  0.00000000000E+00  0.00000000000E+00  0.51120562019E+02  0.51120562019E+02  0.00000000000E+00 0.  1.
         13   -1    0    0    0    0 -0.00000000000E+00 -0.00000000000E+00 -0.10000000000E+04  0.10000000000E+04  0.00000000000E+00 0.  1.
    9000005    2    1    2  501    0  0.41195159391E+02  0.29652179112E+00 -0.97102370941E+03  0.10043498678E+04  0.25324786986E+03 0.  0.
         13    1    3    3    0    0 -0.38321931139E+02 -0.10728343579E+03 -0.31868424079E+03  0.33843455989E+03  0.00000000000E+00 0.  1.
          3    1    3    3  501    0  0.79517090531E+02  0.10757995758E+03 -0.65233946863E+03  0.66591530789E+03  0.00000000000E+00 0.  1.
         21    1    1    2  502  501 -0.41195159391E+02 -0.29652179112E+00  0.22144271430E+02  0.46770694239E+02  0.00000000000E+00 0.  1.
<mgrwt>
<rscale>  1 0.30000000E+03</rscale>
<asrwt>0</asrwt>
<pdfrwt beam="1">  1        1 0.18589334E+00 0.30000000E+03</pdfrwt>
<pdfrwt beam="2">0</pdfrwt>
<totfact> 0.11965431E+01</totfact>
</mgrwt>
</event>
<event>
 6    1  0.1940992E-004  0.3000000E+03  0.7818608E-02  0.1093470E+00
          1   -1    0    0  502    0  0.00000000000E+00  0.00000000000E+00  0.28629970467E+02  0.28629970467E+02  0.00000000000E+00 0.  1.
         13   -1    0    0    0    0 -0.00000000000E+00 -0.00000000000E+00 -0.10000000000E+04  0.10000000000E+04  0.00000000000E+00 0.  1.
    9000005    2    1    2  501    0  0.13143415078E+02 -0.61478934617E+01 -0.95056533406E+03  0.10032650083E+04  0.32055526284E+03 0.  0.
         13    1    3    3    0    0  0.76677999109E+02  0.11108018003E+02 -0.93151000228E+03  0.93472658460E+03  0.00000000000E+00 0.  1.
          1    1    3    3  501    0 -0.63534584032E+02 -0.17255911465E+02 -0.19055331777E+02  0.68538423659E+02  0.00000000000E+00 0.  1.
         21    1    1    2  502  501 -0.13143415078E+02  0.61478934617E+01 -0.20804695473E+02  0.25364962205E+02  0.00000000000E+00 0. -1.
<mgrwt>
<rscale>  1 0.30000000E+03</rscale>
<asrwt>0</asrwt>
<pdfrwt beam="1">  1        1 0.10410920E+00 0.30000000E+03</pdfrwt>
<pdfrwt beam="2">0</pdfrwt>
<totfact> 0.32257771E+01</totfact>
</mgrwt>
</event>
<event>
 6    1  0.1940992E-004  0.3000000E+03  0.7818608E-02  0.1093470E+00
          1   -1    0    0  502    0  0.00000000000E+00  0.00000000000E+00  0.64714702645E+02  0.64714702645E+02  0.00000000000E+00 0.  1.
         13   -1    0    0    0    0 -0.00000000000E+00 -0.00000000000E+00 -0.10000000000E+04  0.10000000000E+04  0.00000000000E+00 0.  1.
    9000005    2    1    2  501    0 -0.12909099444E+02  0.24600510266E+02 -0.96506016660E+03  0.10239915791E+04  0.34124155509E+03 0.  0.
         13    1    3    3    0    0  0.12831697133E+03  0.11308367982E+03 -0.40426445431E+03  0.43895661835E+03  0.00000000000E+00 0.  1.
          1    1    3    3  501    0 -0.14122607077E+03 -0.88483169553E+02 -0.56079571229E+03  0.58503496074E+03  0.00000000000E+00 0.  1.
         21    1    1    2  502  501  0.12909099444E+02 -0.24600510266E+02  0.29774869247E+02  0.40723123560E+02  0.00000000000E+00 0.  1.
<mgrwt>
<rscale>  1 0.30000000E+03</rscale>
<asrwt>0</asrwt>
<pdfrwt beam="1">  1        1 0.23532669E+00 0.30000000E+03</pdfrwt>
<pdfrwt beam="2">0</pdfrwt>
<totfact> 0.69875638E+00</totfact>
</mgrwt>
</event>
<event>
 6    1  0.1940992E-004  0.3000000E+03  0.7818608E-02  0.1093470E+00
          1   -1    0    0  502    0  0.00000000000E+00  0.00000000000E+00  0.44021966890E+02  0.44021966890E+02  0.00000000000E+00 0.  1.
         13   -1    0    0    0    0 -0.00000000000E+00 -0.00000000000E+00 -0.10000000000E+04  0.10000000000E+04  0.00000000000E+00 0.  1.
    9000005    2    1    2  501    0 -0.50524834764E+02 -0.12359542674E+02 -0.92777210926E+03  0.98485194607E+03  0.32629243287E+03 0.  0.
         13    1    3    3    0    0 -0.11335549304E+03  0.37177873345E+02 -0.88712220975E+03  0.89510752265E+03  0.00000000000E+00 0.  1.
          3    1    3    3  501    0  0.62830658280E+02 -0.49537416019E+02 -0.40649899503E+02  0.89744423422E+02  0.00000000000E+00 0.  1.
         21    1    1    2  502  501  0.50524834764E+02  0.12359542674E+02 -0.28205923855E+02  0.59170020818E+02  0.00000000000E+00 0.  1.
<mgrwt>
<rscale>  1 0.30000000E+03</rscale>
<asrwt>0</asrwt>
<pdfrwt beam="1">  1        1 0.16008022E+00 0.30000000E+03</pdfrwt>
<pdfrwt beam="2">0</pdfrwt>
<totfact> 0.15988369E+01</totfact>
</mgrwt>
</event>
<event>
 6    1  0.1940992E-004  0.3000000E+03  0.7818608E-02  0.1093470E+00
          1   -1    0    0  502    0  0.00000000000E+00  0.00000000000E+00  0.46737727648E+02  0.46737727648E+02  0.00000000000E+00 0.  1.
         13   -1    0    0    0    0 -0.00000000000E+00 -0.00000000000E+00 -0.10000000000E+04  0.10000000000E+04  0.00000000000E+00 0.  1.
    9000005    2    1    2  501    0  0.46093007805E+01  0.54039634612E+02 -0.91771966937E+03  0.98189326459E+03  0.34491080547E+03 0.  0.
         13    1    3    3    0    0  0.60589151308E+02 -0.10373769831E+03 -0.68359309904E+03  0.69406921871E+03  0.00000000000E+00 0.  1.
          3    1    3    3  501    0 -0.55979850527E+02  0.15777733293E+03 -0.23412657033E+03  0.28782404588E+03  0.00000000000E+00 0.  1.
         21    1    1    2  502  501 -0.46093007805E+01 -0.54039634612E+02 -0.35542602981E+02  0.64844463058E+02  0.00000000000E+00 0.  1.
<mgrwt>
<rscale>  1 0.30000000E+03</rscale>
<asrwt>0</asrwt>
<pdfrwt beam="1">  1        1 0.16995573E+00 0.30000000E+03</pdfrwt>
<pdfrwt beam="2">0</pdfrwt>
<totfact> 0.14294313E+01</totfact>
</mgrwt>
</event>
<event>
 6    1  0.1940992E-004  0.3000000E+03  0.7818608E-02  0.1093470E+00
          1   -1    0    0  502    0  0.00000000000E+00  0.00000000000E+00  0.36806523056E+02  0.36806523056E+02  0.00000000000E+00 0.  1.
         13   -1    0    0    0    0 -0.00000000000E+00 -0.00000000000E+00 -0.10000000000E+04  0.10000000000E+04  0.00000000000E+00 0.  1.
    9000005    2    1    2  501    0 -0.25173114288E+02  0.12852914942E+02 -0.92898177015E+03  0.99242945705E+03  0.34800892926E+03 0.  0.
         13    1    3    3    0    0 -0.11822035625E+03  0.90716957663E+02 -0.17997326934E+03  0.23365786252E+03  0.00000000000E+00 0.  1.
          3    1    3    3  501    0  0.93047241960E+02 -0.77864042721E+02 -0.74900850081E+03  0.75877159453E+03  0.00000000000E+00 0.  1.
         21    1    1    2  502  501  0.25173114288E+02 -0.12852914942E+02 -0.34211706789E+02  0.44377066001E+02  0.00000000000E+00 0.  1.
<mgrwt>
<rscale>  1 0.30000000E+03</rscale>
<asrwt>0</asrwt>
<pdfrwt beam="1">  1        1 0.13384218E+00 0.30000000E+03</pdfrwt>
<pdfrwt beam="2">0</pdfrwt>
<totfact> 0.21811494E+01</totfact>
</mgrwt>
</event>
<event>
 6    1  0.1940992E-004  0.3000000E+03  0.7818608E-02  0.1093470E+00
          1   -1    0    0  502    0  0.00000000000E+00  0.00000000000E+00  0.45781909945E+02  0.45781909945E+02  0.00000000000E+00 0.  1.
         13   -1    0    0    0    0 -0.00000000000E+00 -0.00000000000E+00 -0.10000000000E+04  0.10000000000E+04  0.00000000000E+00 0.  1.
    9000005    2    1    2  501    0 -0.11332957575E+02  0.66671516062E+01 -0.97029369507E+03  0.10250138596E+04  0.33016764055E+03 0.  0.
         13    1    3    3    0    0  0.11691688923E+03 -0.96149324777E+02 -0.31596244740E+03  0.35035199416E+03  0.00000000000E+00 0.  1.
          1    1    3    3  501    0 -0.12824984681E+03  0.10281647638E+03 -0.65433124767E+03  0.67466186546E+03  0.00000000000E+00 0.  1.
         21    1    1    2  502  501  0.11332957575E+02 -0.66671516062E+01  0.16075605017E+02  0.20768050332E+02  0.00000000000E+00 0.  1.
<mgrwt>
<rscale>  1 0.30000000E+03</rscale>
<asrwt>0</asrwt>
<pdfrwt beam="1">  1        1 0.16648002E+00 0.30000000E+03</pdfrwt>
<pdfrwt beam="2">0</pdfrwt>
<totfact> 0.14866018E+01</totfact>
</mgrwt>
</event>
<event>
 6    1  0.1940992E-004  0.3000000E+03  0.7818608E-02  0.1093470E+00
          1   -1    0    0  502    0  0.00000000000E+00  0.00000000000E+00  0.43335294800E+02  0.43335294800E+02  0.00000000000E+00 0.  1.
         13   -1    0    0    0    0 -0.00000000000E+00 -0.00000000000E+00 -0.10000000000E+04  0.10000000000E+04  0.00000000000E+00 0.  1.
    9000005    2    1    2  501    0 -0.11530435483E+02 -0.24771712417E+00 -0.97165317859E+03  0.10244232182E+04  0.32434552293E+03 0.  0.
         13    1    3    3    0    0 -0.10311748498E+03 -0.62698206092E+02 -0.13755407583E+03  0.18299017605E+03  0.00000000000E+00 0.  1.
          1    1    3    3  501    0  0.91587049495E+02  0.62450488968E+02 -0.83409910276E+03  0.84143304216E+03  0.00000000000E+00 0.  1.
         21    1    1    2  502  501  0.11530435483E+02  0.24771712417E+00  0.14988473392E+02  0.18912076587E+02  0.00000000000E+00 0.  1.
<mgrwt>
<rscale>  1 0.30000000E+03</rscale>
<asrwt>0</asrwt>
<pdfrwt beam="1">  1        1 0.15758322E+00 0.30000000E+03</pdfrwt>
<pdfrwt beam="2">0</pdfrwt>
<totfact> 0.16452698E+01</totfact>
</mgrwt>
</event>
<event>
 6    1  0.1940992E-004  0.3000000E+03  0.7818608E-02  0.1093470E+00
          1   -1    0    0  502    0  0.00000000000E+00  0.00000000000E+00  0.36575327393E+02  0.36575327393E+02  0.00000000000E+00 0.  1.
         13   -1    0    0    0    0 -0.00000000000E+00 -0.00000000000E+00 -0.10000000000E+04  0.10000000000E+04  0.00000000000E+00 0.  1.
    9000005    2    1    2  501    0 -0.25208505183E+01  0.35609035517E+02 -0.93581815309E+03  0.99144797407E+03  0.32548288979E+03 0.  0.
         13    1    3    3    0    0  0.50590997179E+02 -0.63520546176E+02 -0.83938272604E+03  0.84330164802E+03  0.00000000000E+00 0.  1.
          3    1    3    3  501    0 -0.53111847697E+02  0.99129581693E+02 -0.96435427045E+02  0.14814632605E+03  0.00000000000E+00 0.  1.
         21    1    1    2  502  501  0.25208505183E+01 -0.35609035517E+02 -0.27606519521E+02  0.45127353322E+02  0.00000000000E+00 0.  1.
<mgrwt>
<rscale>  1 0.30000000E+03</rscale>
<asrwt>0</asrwt>
<pdfrwt beam="1">  1        1 0.13300147E+00 0.30000000E+03</pdfrwt>
<pdfrwt beam="2">0</pdfrwt>
<totfact> 0.22039550E+01</totfact>
</mgrwt>
</event>
<event>
 6    1  0.1940992E-004  0.3000000E+03  0.7818608E-02  0.1093470E+00
          1   -1    0    0  502    0  0.00000000000E+00  0.00000000000E+00  0.28156858396E+02  0.28156858396E+02  0.00000000000E+00 0.  1.
         13   -1    0    0    0    0 -0.00000000000E+00 -0.00000000000E+00 -0.10000000000E+04  0.10000000000E+04  0.00000000000E+00 0.  1.
    9000005    2    1    2  501    0  0.63632986113E+01 -0.14427964697E+02 -0.95459626648E+03  0.10047878097E+04  0.31320257478E+03 0.  0.
         13    1    3    3    0    0  0.11611937257E+03 -0.59230219828E+02 -0.79695841299E+03  0.80754853703E+03  0.00000000000E+00 0.  1.
          1    1    3    3  501    0 -0.10975607396E+03  0.44802255131E+02 -0.15763785349E+03  0.19723927269E+03  0.00000000000E+00 0.  1.
         21    1    1    2  502  501 -0.63632986113E+01  0.14427964697E+02 -0.17246875120E+02  0.23369048674E+02  0.00000000000E+00 0. -1.
<mgrwt>
<rscale>  1 0.30000000E+03</rscale>
<asrwt>0</asrwt>
<pdfrwt beam="1">  1        1 0.10238879E+00 0.30000000E+03</pdfrwt>
<pdfrwt beam="2">0</pdfrwt>
<totfact> 0.33061514E+01</totfact>
</mgrwt>
</event>
<event>
 6    1  0.1940992E-004  0.3000000E+03  0.7818608E-02  0.1093470E+00
          1   -1    0    0  502    0  0.00000000000E+00  0.00000000000E+00  0.31486195103E+02  0.31486195103E+02  0.00000000000E+00 0.  1.
         13   -1    0    0    0    0 -0.00000000000E+00 -0.00000000000E+00 -0.10000000000E+04  0.10000000000E+04  0.00000000000E+00 0.  1.
    9000005    2    1    2  501    0 -0.62513021317E+01  0.41636034515E+02 -0.89482475836E+03  0.94661739207E+03  0.30594198903E+03 0.  0.
         13    1    3    3    0    0 -0.25301146192E+02 -0.91149039597E+02 -0.72035290424E+03  0.72653740582E+03  0.00000000000E+00 0.  1.
          3    1    3    3  501    0  0.19049844060E+02  0.13278507411E+03 -0.17447185413E+03  0.22007998625E+03  0.00000000000E+00 0.  1.
         21    1    1    2  502  501  0.62513021317E+01 -0.41636034515E+02 -0.73689046536E+02  0.84868803031E+02  0.00000000000E+00 0.  1.
<mgrwt>
<rscale>  1 0.30000000E+03</rscale>
<asrwt>0</asrwt>
<pdfrwt beam="1">  1        1 0.11449550E+00 0.30000000E+03</pdfrwt>
<pdfrwt beam="2">0</pdfrwt>
<totfact> 0.27953910E+01</totfact>
</mgrwt>
</event>
<event>
 6    1  0.1940992E-004  0.3000000E+03  0.7818608E-02  0.1093470E+00
          1   -1    0    0  502    0  0.00000000000E+00  0.00000000000E+00  0.46763975211E+02  0.46763975211E+02  0.00000000000E+00 0.  1.
         13   -1    0    0    0    0 -0.00000000000E+00 -0.00000000000E+00 -0.10000000000E+04  0.10000000000E+04  0.00000000000E+00 0.  1.
    9000005    2    1    2  501    0  0.53143005406E+02  0.71317783160E+02 -0.79757879884E+03  0.86748883134E+03  0.32938507393E+03 0.  0.
         13    1    3    3    0    0 -0.13988470930E+02  0.18944089169E+03 -0.58621219845E+03  0.61622095905E+03  0.00000000000E+00 0.  1.
          1    1    3    3  501    0  0.67131476337E+02 -0.11812310853E+03 -0.21136660039E+03  0.25126787229E+03  0.00000000000E+00 0.  1.
         21    1    1    2  502  501 -0.53143005406E+02 -0.71317783160E+02 -0.15565722595E+03  0.17927514387E+03  0.00000000000E+00 0. -1.
<mgrwt>
<rscale>  1 0.30000000E+03</rscale>
<asrwt>0</asrwt>
<pdfrwt beam="1">  1        1 0.17005118E+00 0.30000000E+03</pdfrwt>
<pdfrwt beam="2">0</pdfrwt>
<totfact> 0.14278967E+01</totfact>
</mgrwt>
</event>
<event>
 6    1  0.1940992E-004  0.3000000E+03  0.7818608E-02  0.1093470E+00
          1   -1    0    0  502    0  0.00000000000E+00  0.00000000000E+00  0.63435952861E+02  0.63435952861E+02  0.00000000000E+00 0.  1.
         13   -1    0    0    0    0 -0.00000000000E+00 -0.00000000000E+00 -0.10000000000E+04  0.10000000000E+04  0.00000000000E+00 0.  1.
    9000005    2    1    2  501    0 -0.83020853156E+02  0.32288281610E+02 -0.91015244879E+03  0.97052434048E+03  0.32496926045E+03 0.  0.
         13    1    3    3    0    0 -0.15440892207E+03  0.10116434282E+03 -0.29914471971E+03  0.35151657544E+03  0.00000000000E+00 0.  1.
          1    1    3    3  501    0  0.71388068916E+02 -0.68876061211E+02 -0.61100772908E+03  0.61900776504E+03  0.00000000000E+00 0.  1.
         21    1    1    2  502  501  0.83020853156E+02 -0.32288281610E+02 -0.26411598348E+02  0.92911612382E+02  0.00000000000E+00 0.  1.
<mgrwt>
<rscale>  1 0.30000000E+03</rscale>
<asrwt>0</asrwt>
<pdfrwt beam="1">  1        1 0.23067668E+00 0.30000000E+03</pdfrwt>
<pdfrwt beam="2">0</pdfrwt>
<totfact> 0.73466370E+00</totfact>
</mgrwt>
</event>
<event>
 6    1  0.1940992E-004  0.3000000E+03  0.7818608E-02  0.1093470E+00
          1   -1    0    0  502    0  0.00000000000E+00  0.00000000000E+00  0.29842613287E+02  0.29842613287E+02  0.00000000000E+00 0.  1.
         13   -1    0    0    0    0 -0.00000000000E+00 -0.00000000000E+00 -0.10000000000E+04  0.10000000000E+04  0.00000000000E+00 0.  1.
    9000005    2    1    2  501    0 -0.11611659344E+02  0.59492376814E+00 -0.96081136708E+03  0.10149250850E+04  0.32677096031E+03 0.  0.
         13    1    3    3    0    0 -0.65681907197E+02  0.15033241984E+03 -0.56379933952E+03  0.58718280342E+03  0.00000000000E+00 0.  1.
          1    1    3    3  501    0  0.54070247852E+02 -0.14973749607E+03 -0.39701202755E+03  0.42774228158E+03  0.00000000000E+00 0.  1.
         21    1    1    2  502  501  0.11611659344E+02 -0.59492376814E+00 -0.93460196347E+01  0.14917528282E+02  0.00000000000E+00 0.  1.
<mgrwt>
<rscale>  1 0.30000000E+03</rscale>
<asrwt>0</asrwt>
<pdfrwt beam="1">  1        1 0.10851882E+00 0.30000000E+03</pdfrwt>
<pdfrwt beam="2">0</pdfrwt>
<totfact> 0.30322423E+01</totfact>
</mgrwt>
</event>
<event>
 6    1  0.1940992E-004  0.3000000E+03  0.7818608E-02  0.1093470E+00
          1   -1    0    0  502    0  0.00000000000E+00  0.00000000000E+00  0.93324592956E+02  0.93324592956E+02  0.00000000000E+00 0.  1.
         13   -1    0    0    0    0 -0.00000000000E+00 -0.00000000000E+00 -0.10000000000E+04  0.10000000000E+04  0.00000000000E+00 0.  1.
    9000005    2    1    2  501    0  0.78935725765E+01 -0.18370133982E+02 -0.97121862717E+03  0.10257553871E+04  0.32940662130E+03 0.  0.
         13    1    3    3    0    0 -0.96696572990E+02 -0.11489774120E+03 -0.25841350127E+03  0.29888000234E+03  0.00000000000E+00 0.  1.
          3    1    3    3  501    0  0.10459014557E+03  0.96527607215E+02 -0.71280512590E+03  0.72687538479E+03  0.00000000000E+00 0.  1.
         21    1    1    2  502  501 -0.78935725765E+01  0.18370133982E+02  0.64543220131E+02  0.67569205822E+02  0.00000000000E+00 0.  1.
<mgrwt>
<rscale>  1 0.30000000E+03</rscale>
<asrwt>0</asrwt>
<pdfrwt beam="1">  1        1 0.33936287E+00 0.30000000E+03</pdfrwt>
<pdfrwt beam="2">0</pdfrwt>
<totfact> 0.22307604E+00</totfact>
</mgrwt>
</event>
<event>
 6    1  0.1940992E-004  0.3000000E+03  0.7818608E-02  0.1093470E+00
          1   -1    0    0  502    0  0.00000000000E+00  0.00000000000E+00  0.41539806677E+02  0.41539806677E+02  0.00000000000E+00 0.  1.
         13   -1    0    0    0    0 -0.00000000000E+00 -0.00000000000E+00 -0.10000000000E+04  0.10000000000E+04  0.00000000000E+00 0.  1.
    9000005    2    1    2  501    0 -0.38095842003E+02  0.50212087007E+02 -0.87474835661E+03  0.93675326906E+03  0.32916478069E+03 0.  0.
         13    1    3    3    0    0  0.11141524964E+03 -0.36868292359E+02 -0.14381958291E+03  0.18562516333E+03  0.00000000000E+00 0.  1.
          1    1    3    3  501    0 -0.14951109164E+03  0.87080379366E+02 -0.73092877370E+03  0.75112810573E+03  0.00000000000E+00 0.  1.
         21    1    1    2  502  501  0.38095842003E+02 -0.50212087007E+02 -0.83711836711E+02  0.10478653761E+03  0.00000000000E+00 0.  1.
<mgrwt>
<rscale>  1 0.30000000E+03</rscale>
<asrwt>0</asrwt>
<pdfrwt beam="1">  1        1 0.15105416E+00 0.30000000E+03</pdfrwt>
<pdfrwt beam="2">0</pdfrwt>
<totfact> 0.17744904E+01</totfact>
</mgrwt>
</event>
<event>
 6    1  0.1940992E-004  0.3000000E+03  0.7818608E-02  0.1093470E+00
          1   -1    0    0  502    0  0.00000000000E+00  0.00000000000E+00  0.27239501915E+02  0.27239501915E+02  0.00000000000E+00 0.  1.
         13   -1    0    0    0    0 -0.00000000000E+00 -0.00000000000E+00 -0.10000000000E+04  0.10000000000E+04  0.00000000000E+00 0.  1.
    9000005    2    1    2  501    0 -0.14803308054E+01  0.14804868830E+02 -0.94981075879E+03  0.99988870570E+03  0.31211467562E+03 0.  0.
         13    1    3    3    0    0 -0.12957564684E+02  0.16050928717E+03 -0.40570120518E+03  0.43649123432E+03  0.00000000000E+00 0.  1.
          1    1    3    3  501    0  0.11477233879E+02 -0.14570441834E+03 -0.54410955361E+03  0.56339747138E+03  0.00000000000E+00 0.  1.
         21    1    1    2  502  501  0.14803308054E+01 -0.14804868830E+02 -0.22949739290E+02  0.27350796220E+02  0.00000000000E+00 0. -1.
<mgrwt>
<rscale>  1 0.30000000E+03</rscale>
<asrwt>0</asrwt>
<pdfrwt beam="1">  1        1 0.99052943E-01 0.30000000E+03</pdfrwt>
<pdfrwt beam="2">0</pdfrwt>
<totfact> 0.34705770E+01</totfact>
</mgrwt>
</event>
<event>
 6    1  0.1940992E-004  0.3000000E+03  0.7818608E-02  0.1093470E+00
          1   -1    0    0  502    0  0.00000000000E+00  0.00000000000E+00  0.31840282177E+02  0.31840282177E+02  0.00000000000E+00 0.  1.
         13   -1    0    0    0    0 -0.00000000000E+00 -0.00000000000E+00 -0.10000000000E+04  0.10000000000E+04  0.00000000000E+00 0.  1.
    9000005    2    1    2  501    0 -0.71363655299E+01 -0.92335505264E+01 -0.95846270836E+03  0.10166673404E+04  0.33885916195E+03 0.  0.
         13    1    3    3    0    0 -0.94748381922E+02 -0.11488652008E+03 -0.76561785372E+03  0.77996593919E+03  0.00000000000E+00 0.  1.
          1    1    3    3  501    0  0.87612016392E+02  0.10565296955E+03 -0.19284485464E+03  0.23670140125E+03  0.00000000000E+00 0.  1.
         21    1    1    2  502  501  0.71363655299E+01  0.92335505264E+01 -0.96970094640E+01  0.15172941733E+02  0.00000000000E+00 0. -1.
<mgrwt>
<rscale>  1 0.30000000E+03</rscale>
<asrwt>0</asrwt>
<pdfrwt beam="1">  1        1 0.11578309E+00 0.30000000E+03</pdfrwt>
<pdfrwt beam="2">0</pdfrwt>
<totfact> 0.27478141E+01</totfact>
</mgrwt>
</event>
<event>
 6    1  0.1940992E-004  0.3000000E+03  0.7818608E-02  0.1093470E+00
          1   -1    0    0  502    0  0.00000000000E+00  0.00000000000E+00  0.64906591108E+02  0.64906591108E+02  0.00000000000E+00 0.  1.
         13   -1    0    0    0    0 -0.00000000000E+00 -0.00000000000E+00 -0.10000000000E+04  0.10000000000E+04  0.00000000000E+00 0.  1.
    9000005    2    1    2  501    0  0.17496886632E+02 -0.47107419868E+01 -0.96976218416E+03  0.10257881030E+04  0.33387753192E+03 0.  0.
         13    1    3    3    0    0 -0.14479945414E+03  0.40696257364E+02 -0.61360330292E+03  0.63176900892E+03  0.00000000000E+00 0.  1.
          1    1    3    3  501    0  0.16229634078E+03 -0.45406999351E+02 -0.35615888125E+03  0.39401909409E+03  0.00000000000E+00 0.  1.
         21    1    1    2  502  501 -0.17496886632E+02  0.47107419868E+01  0.34668775271E+02  0.39118488093E+02  0.00000000000E+00 0. -1.
<mgrwt>
<rscale>  1 0.30000000E+03</rscale>
<asrwt>0</asrwt>
<pdfrwt beam="1">  1        1 0.23602447E+00 0.30000000E+03</pdfrwt>
<pdfrwt beam="2">0</pdfrwt>
<totfact> 0.69351673E+00</totfact>
</mgrwt>
</event>
<event>
 6    1  0.1940992E-004  0.3000000E+03  0.7818608E-02  0.1093470E+00
          1   -1    0    0  502    0  0.00000000000E+00  0.00000000000E+00  0.35064791349E+02  0.35064791349E+02  0.00000000000E+00 0.  1.
         13   -1    0    0    0    0 -0.00000000000E+00 -0.00000000000E+00 -0.10000000000E+04  0.10000000000E+04  0.00000000000E+00 0.  1.
    9000005    2    1    2  501    0 -0.26152937772E+02 -0.33774261538E+02 -0.84084030896E+03  0.90382371155E+03  0.32872511236E+03 0.  0.
         13    1    3    3    0    0 -0.68648609147E+02 -0.11378610141E+03 -0.78761833335E+03  0.79875061655E+03  0.00000000000E+00 0.  1.
          3    1    3    3  501    0  0.42495671375E+02  0.80011839873E+02 -0.53221975610E+02  0.10507309500E+03  0.00000000000E+00 0.  1.
         21    1    1    2  502  501  0.26152937772E+02  0.33774261538E+02 -0.12409489969E+03  0.13124107980E+03  0.00000000000E+00 0.  1.
<mgrwt>
<rscale>  1 0.30000000E+03</rscale>
<asrwt>0</asrwt>
<pdfrwt beam="1">  1        1 0.12750860E+00 0.30000000E+03</pdfrwt>
<pdfrwt beam="2">0</pdfrwt>
<totfact> 0.23609127E+01</totfact>
</mgrwt>
</event>
<event>
 6    1  0.1940992E-004  0.3000000E+03  0.7818608E-02  0.1093470E+00
          1   -1    0    0  502    0  0.00000000000E+00  0.00000000000E+00  0.29553861240E+02  0.29553861240E+02  0.00000000000E+00 0.  1.
         13   -1    0    0    0    0 -0.00000000000E+00 -0.00000000000E+00 -0.10000000000E+04  0.10000000000E+04  0.00000000000E+00 0.  1.
    9000005    2    1    2  501    0 -0.13226310254E+02 -0.48992485628E+00 -0.96009319494E+03  0.10127503272E+04  0.32203898372E+03 0.  0.
         13    1    3    3    0    0 -0.63358686647E+02  0.10527542192E+02 -0.95926718571E+03  0.96141493950E+03  0.00000000000E+00 0.  1.
          3    1    3    3  501    0  0.50132376393E+02 -0.11017467048E+02 -0.82600923651E+00  0.51335387738E+02  0.00000000000E+00 0.  1.
         21    1    1    2  502  501  0.13226310254E+02  0.48992485628E+00 -0.10352943816E+02  0.16803534002E+02  0.00000000000E+00 0. -1.
<mgrwt>
<rscale>  1 0.30000000E+03</rscale>
<asrwt>0</asrwt>
<pdfrwt beam="1">  1        1 0.10746881E+00 0.30000000E+03</pdfrwt>
<pdfrwt beam="2">0</pdfrwt>
<totfact> 0.30767807E+01</totfact>
</mgrwt>
</event>
<event>
 6    1  0.1940992E-004  0.3000000E+03  0.7818608E-02  0.1093470E+00
          1   -1    0    0  502    0  0.00000000000E+00  0.00000000000E+00  0.28733549967E+02  0.28733549967E+02  0.00000000000E+00 0.  1.
         13   -1    0    0    0    0 -0.00000000000E+00 -0.00000000000E+00 -0.10000000000E+04  0.10000000000E+04  0.00000000000E+00 0.  1.
    9000005    2    1    2  501    0 -0.41538825365E+01  0.91918249416E+01 -0.95945097761E+03  0.10131981139E+04  0.32545736302E+03 0.  0.
         13    1    3    3    0    0 -0.12070107611E+03 -0.97426403270E+02 -0.61493426715E+03  0.63419618948E+03  0.00000000000E+00 0.  1.
          1    1    3    3  501    0  0.11654719357E+03  0.10661822821E+03 -0.34451671046E+03  0.37900192440E+03  0.00000000000E+00 0.  1.
         21    1    1    2  502  501  0.41538825365E+01 -0.91918249416E+01 -0.11815472422E+02  0.15535436088E+02  0.00000000000E+00 0. -1.
<mgrwt>
<rscale>  1 0.30000000E+03</rscale>
<asrwt>0</asrwt>
<pdfrwt beam="1">  1        1 0.10448586E+00 0.30000000E+03</pdfrwt>
<pdfrwt beam="2">0</pdfrwt>
<totfact> 0.32085601E+01</totfact>
</mgrwt>
</event>
<event>
 6    1  0.1940992E-004  0.3000000E+03  0.7818608E-02  0.1093470E+00
          1   -1    0    0  502    0  0.00000000000E+00  0.00000000000E+00  0.32107551339E+02  0.32107551339E+02  0.00000000000E+00 0.  1.
         13   -1    0    0    0    0 -0.00000000000E+00 -0.00000000000E+00 -0.10000000000E+04  0.10000000000E+04  0.00000000000E+00 0.  1.
    9000005    2    1    2  501    0  0.15018645564E+02 -0.15179779860E+02 -0.94821158230E+03  0.10030675456E+04  0.32647099541E+03 0.  0.
         13    1    3    3    0    0  0.13857452048E+02  0.14380079391E+03 -0.26730342882E+03  0.30384505980E+03  0.00000000000E+00 0.  1.
          1    1    3    3  501    0  0.11611935161E+01 -0.15898057377E+03 -0.68090815348E+03  0.69922248583E+03  0.00000000000E+00 0.  1.
         21    1    1    2  502  501 -0.15018645564E+02  0.15179779860E+02 -0.19680866360E+02  0.29040005714E+02  0.00000000000E+00 0. -1.
<mgrwt>
<rscale>  1 0.30000000E+03</rscale>
<asrwt>0</asrwt>
<pdfrwt beam="1">  1        1 0.11675498E+00 0.30000000E+03</pdfrwt>
<pdfrwt beam="2">0</pdfrwt>
<totfact> 0.27126471E+01</totfact>
</mgrwt>
</event>
<event>
 6    1  0.1940992E-004  0.3000000E+03  0.7818608E-02  0.1093470E+00
          1   -1    0    0  502    0  0.00000000000E+00  0.00000000000E+00  0.43164203616E+02  0.43164203616E+02  0.00000000000E+00 0.  1.
         13   -1    0    0    0    0 -0.00000000000E+00 -0.00000000000E+00 -0.10000000000E+04  0.10000000000E+04  0.00000000000E+00 0.  1.
    9000005    2    1    2  501    0  0.19922338379E+02 -0.97556026437E+01 -0.96804095590E+03  0.10183121021E+04  0.31522083315E+03 0.  0.
         13    1    3    3    0    0 -0.47284171128E+02 -0.92233684586E+02 -0.10083700734E+03  0.14460618057E+03  0.00000000000E+00 0.  1.
          1    1    3    3  501    0  0.67206509507E+02  0.82478081942E+02 -0.86720394857E+03  0.87370592154E+03  0.00000000000E+00 0.  1.
         21    1    1    2  502  501 -0.19922338379E+02  0.97556026437E+01  0.11205159518E+02  0.24852101506E+02  0.00000000000E+00 0.  1.
<mgrwt>
<rscale>  1 0.30000000E+03</rscale>
<asrwt>0</asrwt>
<pdfrwt beam="1">  1        1 0.15696107E+00 0.30000000E+03</pdfrwt>
<pdfrwt beam="2">0</pdfrwt>
<totfact> 0.16570850E+01</totfact>
</mgrwt>
</event>
<event>
 6    1  0.1940992E-004  0.3000000E+03  0.7818608E-02  0.1093470E+00
          1   -1    0    0  502    0  0.00000000000E+00  0.00000000000E+00  0.27717617013E+02  0.27717617013E+02  0.00000000000E+00 0.  1.
         13   -1    0    0    0    0 -0.00000000000E+00 -0.00000000000E+00 -0.10000000000E+04  0.10000000000E+04  0.00000000000E+00 0.  1.
    9000005    2    1    2  501    0 -0.89829116540E+01 -0.32812351015E+01 -0.95733141263E+03  0.10099696391E+04  0.32165786028E+03 0.  0.
         13    1    3    3    0    0 -0.45949071702E+02 -0.13728566525E+03 -0.72429630129E+03  0.73862290997E+03  0.00000000000E+00 0.  1.
          3    1    3    3  501    0  0.36966160048E+02  0.13400443015E+03 -0.23303511134E+03  0.27134672912E+03  0.00000000000E+00 0.  1.
         21    1    1    2  502  501  0.89829116540E+01  0.32812351015E+01 -0.14950970360E+02  0.17747977921E+02  0.00000000000E+00 0.  1.
<mgrwt>
<rscale>  1 0.30000000E+03</rscale>
<asrwt>0</asrwt>
<pdfrwt beam="1">  1        1 0.10079155E+00 0.30000000E+03</pdfrwt>
<pdfrwt beam="2">0</pdfrwt>
<totfact> 0.33834180E+01</totfact>
</mgrwt>
</event>
<event>
 6    1  0.1940992E-004  0.3000000E+03  0.7818608E-02  0.1093470E+00
          1   -1    0    0  502    0  0.00000000000E+00  0.00000000000E+00  0.24174873151E+02  0.24174873151E+02  0.00000000000E+00 0.  1.
         13   -1    0    0    0    0 -0.00000000000E+00 -0.00000000000E+00 -0.10000000000E+04  0.10000000000E+04  0.00000000000E+00 0.  1.
    9000005    2    1    2  501    0  0.13279500659E+02  0.17263400790E+01 -0.95105074221E+03  0.99601292147E+03  0.29557554043E+03 0.  0.
         13    1    3    3    0    0 -0.13914966746E+03  0.53306212662E+01 -0.53766269639E+03  0.55540275528E+03  0.00000000000E+00 0.  1.
          1    1    3    3  501    0  0.15242916811E+03 -0.36042811872E+01 -0.41338804581E+03  0.44061016620E+03  0.00000000000E+00 0.  1.
         21    1    1    2  502  501 -0.13279500659E+02 -0.17263400790E+01 -0.24774384642E+02  0.28161951676E+02  0.00000000000E+00 0. -1.
<mgrwt>
<rscale>  1 0.30000000E+03</rscale>
<asrwt>0</asrwt>
<pdfrwt beam="1">  1        1 0.87908815E-01 0.30000000E+03</pdfrwt>
<pdfrwt beam="2">0</pdfrwt>
<totfact> 0.41177497E+01</totfact>
</mgrwt>
</event>
<event>
 6    1  0.1940992E-004  0.3000000E+03  0.7818608E-02  0.1093470E+00
          1   -1    0    0  502    0  0.00000000000E+00  0.00000000000E+00  0.32977460078E+02  0.32977460078E+02  0.00000000000E+00 0.  1.
         13   -1    0    0    0    0 -0.00000000000E+00 -0.00000000000E+00 -0.10000000000E+04  0.10000000000E+04  0.00000000000E+00 0.  1.
    9000005    2    1    2  501    0  0.36680672893E+02  0.48901045948E+00 -0.88387383811E+03  0.94209612256E+03  0.32398523356E+03 0.  0.
         13    1    3    3    0    0  0.48189414566E+02  0.45380035394E+02 -0.99413579671E+01  0.66935774342E+02  0.00000000000E+00 0.  1.
          1    1    3    3  501    0 -0.11508741674E+02 -0.44891024934E+02 -0.87393248014E+03  0.87516034822E+03  0.00000000000E+00 0.  1.
         21    1    1    2  502  501 -0.36680672893E+02 -0.48901045948E+00 -0.83148701813E+02  0.90881337514E+02  0.00000000000E+00 0.  1.
<mgrwt>
<rscale>  1 0.30000000E+03</rscale>
<asrwt>0</asrwt>
<pdfrwt beam="1">  1        1 0.11991829E+00 0.30000000E+03</pdfrwt>
<pdfrwt beam="2">0</pdfrwt>
<totfact> 0.26023695E+01</totfact>
</mgrwt>
</event>
<event>
 6    1  0.1940992E-004  0.3000000E+03  0.7818608E-02  0.1093470E+00
          1   -1    0    0  502    0  0.00000000000E+00  0.00000000000E+00  0.28597606291E+02  0.28597606291E+02  0.00000000000E+00 0.  1.
         13   -1    0    0    0    0 -0.00000000000E+00 -0.00000000000E+00 -0.10000000000E+04  0.10000000000E+04  0.00000000000E+00 0.  1.
    9000005    2    1    2  501    0 -0.15049855914E+02  0.21216358056E+02 -0.87722411652E+03  0.93089305212E+03  0.31042405168E+03 0.  0.
         13    1    3    3    0    0  0.88303086893E+02  0.27089451330E+02 -0.67059050940E+02  0.11414109620E+03  0.00000000000E+00 0.  1.
          3    1    3    3  501    0 -0.10335294281E+03 -0.58730932743E+01 -0.81016506558E+03  0.81675195592E+03  0.00000000000E+00 0.  1.
         21    1    1    2  502  501  0.15049855914E+02 -0.21216358056E+02 -0.94178277190E+02  0.97704554176E+02  0.00000000000E+00 0. -1.
<mgrwt>
<rscale>  1 0.30000000E+03</rscale>
<asrwt>0</asrwt>
<pdfrwt beam="1">  1        1 0.10399151E+00 0.30000000E+03</pdfrwt>
<pdfrwt beam="2">0</pdfrwt>
<totfact> 0.32311842E+01</totfact>
</mgrwt>
</event>
<event>
 6    1  0.1940992E-004  0.3000000E+03  0.7818608E-02  0.1093470E+00
          1   -1    0    0  502    0  0.00000000000E+00  0.00000000000E+00  0.31367456260E+02  0.31367456260E+02  0.00000000000E+00 0.  1.
         13   -1    0    0    0    0 -0.00000000000E+00 -0.00000000000E+00 -0.10000000000E+04  0.10000000000E+04  0.00000000000E+00 0.  1.
    9000005    2    1    2  501    0 -0.97611593824E+00 -0.16548049084E+02 -0.93933182703E+03  0.99770259728E+03  0.33584431007E+03 0.  0.
         13    1    3    3    0    0 -0.12273662753E+03 -0.11547168888E+03 -0.61105120657E+03  0.63386242018E+03  0.00000000000E+00 0.  1.
          1    1    3    3  501    0  0.12176051159E+03  0.98923639798E+02 -0.32828062046E+03  0.36384017709E+03  0.00000000000E+00 0.  1.
         21    1    1    2  502  501  0.97611593824E+00  0.16548049084E+02 -0.29300716709E+02  0.33664858985E+02  0.00000000000E+00 0.  1.
<mgrwt>
<rscale>  1 0.30000000E+03</rscale>
<asrwt>0</asrwt>
<pdfrwt beam="1">  1        1 0.11406372E+00 0.30000000E+03</pdfrwt>
<pdfrwt beam="2">0</pdfrwt>
<totfact> 0.28116046E+01</totfact>
</mgrwt>
</event>
<event>
 6    1  0.1940992E-004  0.3000000E+03  0.7818608E-02  0.1093470E+00
          1   -1    0    0  502    0  0.00000000000E+00  0.00000000000E+00  0.39940014397E+02  0.39940014397E+02  0.00000000000E+00 0.  1.
         13   -1    0    0    0    0 -0.00000000000E+00 -0.00000000000E+00 -0.10000000000E+04  0.10000000000E+04  0.00000000000E+00 0.  1.
    9000005    2    1    2  501    0  0.18052750064E+02  0.45107279586E+02 -0.93581454759E+03  0.98564075362E+03  0.30557856480E+03 0.  0.
         13    1    3    3    0    0 -0.48787853678E+02 -0.59738292850E+02 -0.79107969628E+03  0.79483080222E+03  0.00000000000E+00 0.  1.
          3    1    3    3  501    0  0.66840603742E+02  0.10484557244E+03 -0.14473485131E+03  0.19080995139E+03  0.00000000000E+00 0.  1.
         21    1    1    2  502  501 -0.18052750064E+02 -0.45107279586E+02 -0.24245438018E+02  0.54299260780E+02  0.00000000000E+00 0.  1.
<mgrwt>
<rscale>  1 0.30000000E+03</rscale>
<asrwt>0</asrwt>
<pdfrwt beam="1">  1        1 0.14523672E+00 0.30000000E+03</pdfrwt>
<pdfrwt beam="2">0</pdfrwt>
<totfact> 0.19002686E+01</totfact>
</mgrwt>
</event>
<event>
 6    1  0.1940992E-004  0.3000000E+03  0.7818608E-02  0.1093470E+00
          1   -1    0    0  502    0  0.00000000000E+00  0.00000000000E+00  0.52444983035E+02  0.52444983035E+02  0.00000000000E+00 0.  1.
         13   -1    0    0    0    0 -0.00000000000E+00 -0.00000000000E+00 -0.10000000000E+04  0.10000000000E+04  0.00000000000E+00 0.  1.
    9000005    2    1    2  501    0  0.43542427232E+02 -0.24271962965E+02 -0.94399924584E+03  0.10024678416E+04  0.33364970581E+03 0.  0.
         13    1    3    3    0    0  0.13033633714E+03  0.26322988404E+02 -0.86364683974E+03  0.87382282203E+03  0.00000000000E+00 0.  1.
          3    1    3    3  501    0 -0.86793909908E+02 -0.50594951369E+02 -0.80352406097E+02  0.12864501960E+03  0.00000000000E+00 0.  1.
         21    1    1    2  502  501 -0.43542427232E+02  0.24271962965E+02 -0.35557711246E+01  0.49977141412E+02  0.00000000000E+00 0.  1.
<mgrwt>
<rscale>  1 0.30000000E+03</rscale>
<asrwt>0</asrwt>
<pdfrwt beam="1">  1        1 0.19070943E+00 0.30000000E+03</pdfrwt>
<pdfrwt beam="2">0</pdfrwt>
<totfact> 0.11344727E+01</totfact>
</mgrwt>
</event>
<event>
 6    1  0.1940992E-004  0.3000000E+03  0.7818608E-02  0.1093470E+00
          1   -1    0    0  502    0  0.00000000000E+00  0.00000000000E+00  0.36608077970E+02  0.36608077970E+02  0.00000000000E+00 0.  1.
         13   -1    0    0    0    0 -0.00000000000E+00 -0.00000000000E+00 -0.10000000000E+04  0.10000000000E+04  0.00000000000E+00 0.  1.
    9000005    2    1    2  501    0  0.80304892419E+01 -0.15344461299E+02 -0.94323675333E+03  0.10100341796E+04  0.36079568990E+03 0.  0.
         13    1    3    3    0    0 -0.30117882065E+02  0.58278273116E+02 -0.24980535333E+01  0.65648185115E+02  0.00000000000E+00 0.  1.
          3    1    3    3  501    0  0.38148371307E+02 -0.73622734415E+02 -0.94073869979E+03  0.94438599447E+03  0.00000000000E+00 0.  1.
         21    1    1    2  502  501 -0.80304892419E+01  0.15344461299E+02 -0.20155168702E+02  0.26573898386E+02  0.00000000000E+00 0. -1.
<mgrwt>
<rscale>  1 0.30000000E+03</rscale>
<asrwt>0</asrwt>
<pdfrwt beam="1">  1        1 0.13312056E+00 0.30000000E+03</pdfrwt>
<pdfrwt beam="2">0</pdfrwt>
<totfact> 0.22007054E+01</totfact>
</mgrwt>
</event>
<event>
 6    1  0.1940992E-004  0.3000000E+03  0.7818608E-02  0.1093470E+00
          1   -1    0    0  502    0  0.00000000000E+00  0.00000000000E+00  0.28591616094E+02  0.28591616094E+02  0.00000000000E+00 0.  1.
         13   -1    0    0    0    0 -0.00000000000E+00 -0.00000000000E+00 -0.10000000000E+04  0.10000000000E+04  0.00000000000E+00 0.  1.
    9000005    2    1    2  501    0  0.12270176712E+02  0.13667881144E+01 -0.88722964103E+03  0.94351232309E+03  0.32075947773E+03 0.  0.
         13    1    3    3    0    0  0.15094440329E+03 -0.68040080334E+02 -0.43601314033E+03  0.46639159937E+03  0.00000000000E+00 0.  1.
          3    1    3    3  501    0 -0.13867422658E+03  0.69406868448E+02 -0.45121650070E+03  0.47712072373E+03  0.00000000000E+00 0.  1.
         21    1    1    2  502  501 -0.12270176712E+02 -0.13667881144E+01 -0.84178742872E+02  0.85079293002E+02  0.00000000000E+00 0. -1.
<mgrwt>
<rscale>  1 0.30000000E+03</rscale>
<asrwt>0</asrwt>
<pdfrwt beam="1">  1        1 0.10396973E+00 0.30000000E+03</pdfrwt>
<pdfrwt beam="2">0</pdfrwt>
<totfact> 0.32321864E+01</totfact>
</mgrwt>
</event>
<event>
 6    1  0.1940992E-004  0.3000000E+03  0.7818608E-02  0.1093470E+00
          1   -1    0    0  502    0  0.00000000000E+00  0.00000000000E+00  0.39292942800E+02  0.39292942800E+02  0.00000000000E+00 0.  1.
         13   -1    0    0    0    0 -0.00000000000E+00 -0.00000000000E+00 -0.10000000000E+04  0.10000000000E+04  0.00000000000E+00 0.  1.
    9000005    2    1    2  501    0  0.36288211336E+02 -0.13844890468E+02 -0.93194006155E+03  0.99096018670E+03  0.33463606802E+03 0.  0.
         13    1    3    3    0    0 -0.49701930718E+02 -0.13993864950E+03 -0.68300352579E+03  0.69896131780E+03  0.00000000000E+00 0.  1.
          1    1    3    3  501    0  0.85990142054E+02  0.12609375904E+03 -0.24893653576E+03  0.29199886889E+03  0.00000000000E+00 0.  1.
         21    1    1    2  502  501 -0.36288211336E+02  0.13844890468E+02 -0.28766995648E+02  0.48332756105E+02  0.00000000000E+00 0.  1.
<mgrwt>
<rscale>  1 0.30000000E+03</rscale>
<asrwt>0</asrwt>
<pdfrwt beam="1">  1        1 0.14288373E+00 0.30000000E+03</pdfrwt>
<pdfrwt beam="2">0</pdfrwt>
<totfact> 0.19543099E+01</totfact>
</mgrwt>
</event>
<event>
 6    1  0.1940992E-004  0.3000000E+03  0.7818608E-02  0.1093470E+00
          3   -1    0    0  502    0  0.00000000000E+00  0.00000000000E+00  0.32824202999E+02  0.32824202999E+02  0.00000000000E+00 0.  1.
         13   -1    0    0    0    0 -0.00000000000E+00 -0.00000000000E+00 -0.10000000000E+04  0.10000000000E+04  0.00000000000E+00 0.  1.
    9000005    2    1    2  501    0  0.15803385390E+02  0.36064877667E+01 -0.96280331129E+03  0.10160351478E+04  0.32415189581E+03 0.  0.
         13    1    3    3    0    0  0.49713335823E+02 -0.13066134212E+03 -0.74450386204E+03  0.75751554617E+03  0.00000000000E+00 0.  1.
          3    1    3    3  501    0 -0.33909950434E+02  0.13426782989E+03 -0.21829944924E+03  0.25851960162E+03  0.00000000000E+00 0.  1.
         21    1    1    2  502  501 -0.15803385390E+02 -0.36064877667E+01 -0.43724857140E+01  0.16789055218E+02  0.00000000000E+00 0.  1.
<mgrwt>
<rscale>  1 0.30000000E+03</rscale>
<asrwt>0</asrwt>
<pdfrwt beam="1">  1        3 0.11936099E+00 0.30000000E+03</pdfrwt>
<pdfrwt beam="2">0</pdfrwt>
<totfact> 0.23527625E+00</totfact>
</mgrwt>
</event>
<event>
 6    1  0.1940992E-004  0.3000000E+03  0.7818608E-02  0.1093470E+00
          1   -1    0    0  502    0  0.00000000000E+00  0.00000000000E+00  0.27220569461E+02  0.27220569461E+02  0.00000000000E+00 0.  1.
         13   -1    0    0    0    0 -0.00000000000E+00 -0.00000000000E+00 -0.10000000000E+04  0.10000000000E+04  0.00000000000E+00 0.  1.
    9000005    2    1    2  501    0 -0.65559775560E+01 -0.29510007325E+01 -0.95086995761E+03  0.10041616395E+04  0.32269991122E+03 0.  0.
         13    1    3    3    0    0 -0.79409565334E+02 -0.10041222814E+03 -0.16455332026E+03  0.20848570655E+03  0.00000000000E+00 0.  1.
          1    1    3    3  501    0  0.72853587778E+02  0.97461227408E+02 -0.78631663734E+03  0.79567593294E+03  0.00000000000E+00 0.  1.
         21    1    1    2  502  501  0.65559775560E+01  0.29510007325E+01 -0.21909472933E+02  0.23058929967E+02  0.00000000000E+00 0.  1.
<mgrwt>
<rscale>  1 0.30000000E+03</rscale>
<asrwt>0</asrwt>
<pdfrwt beam="1">  1        1 0.98984098E-01 0.30000000E+03</pdfrwt>
<pdfrwt beam="2">0</pdfrwt>
<totfact> 0.34740962E+01</totfact>
</mgrwt>
</event>
<event>
 6    1  0.1940992E-004  0.3000000E+03  0.7818608E-02  0.1093470E+00
          1   -1    0    0  502    0  0.00000000000E+00  0.00000000000E+00  0.22947886423E+02  0.22947886423E+02  0.00000000000E+00 0.  1.
         13   -1    0    0    0    0 -0.00000000000E+00 -0.00000000000E+00 -0.10000000000E+04  0.10000000000E+04  0.00000000000E+00 0.  1.
    9000005    2    1    2  501    0  0.29423016878E+01  0.96474098379E+01 -0.94416062637E+03  0.98854469491E+03  0.29271077156E+03 0.  0.
         13    1    3    3    0    0 -0.26595223286E+02 -0.66447550026E+01 -0.95322199084E+03  0.95361607709E+03  0.00000000000E+00 0.  1.
          1    1    3    3  501    0  0.29537524974E+02  0.16292164841E+02  0.90613644643E+01  0.34928617819E+02  0.00000000000E+00 0.  1.
         21    1    1    2  502  501 -0.29423016878E+01 -0.96474098379E+01 -0.32891487205E+02  0.34403191514E+02  0.00000000000E+00 0.  1.
<mgrwt>
<rscale>  1 0.30000000E+03</rscale>
<asrwt>0</asrwt>
<pdfrwt beam="1">  1        1 0.83447036E-01 0.30000000E+03</pdfrwt>
<pdfrwt beam="2">0</pdfrwt>
<totfact> 0.44294906E+01</totfact>
</mgrwt>
</event>
<event>
 6    1  0.1940992E-004  0.3000000E+03  0.7818608E-02  0.1093470E+00
          1   -1    0    0  502    0  0.00000000000E+00  0.00000000000E+00  0.33714280472E+02  0.33714280472E+02  0.00000000000E+00 0.  1.
         13   -1    0    0    0    0 -0.00000000000E+00 -0.00000000000E+00 -0.10000000000E+04  0.10000000000E+04  0.00000000000E+00 0.  1.
    9000005    2    1    2  501    0 -0.37670893939E+01 -0.20905046807E+02 -0.95052057703E+03  0.10072614609E+04  0.33261850722E+03 0.  0.
         13    1    3    3    0    0  0.21600046263E+02  0.11455626398E+03 -0.77687349188E+03  0.78557120747E+03  0.00000000000E+00 0.  1.
          3    1    3    3  501    0 -0.25367135657E+02 -0.13546131079E+03 -0.17364708515E+03  0.22169025345E+03  0.00000000000E+00 0.  1.
         21    1    1    2  502  501  0.37670893939E+01  0.20905046807E+02 -0.15765142495E+02  0.26452819555E+02  0.00000000000E+00 0.  1.
<mgrwt>
<rscale>  1 0.30000000E+03</rscale>
<asrwt>0</asrwt>
<pdfrwt beam="1">  1        1 0.12259764E+00 0.30000000E+03</pdfrwt>
<pdfrwt beam="2">0</pdfrwt>
<totfact> 0.25136255E+01</totfact>
</mgrwt>
</event>
<event>
 6    1  0.1940992E-004  0.3000000E+03  0.7818608E-02  0.1093470E+00
          1   -1    0    0  502    0  0.00000000000E+00  0.00000000000E+00  0.28970428265E+02  0.28970428265E+02  0.00000000000E+00 0.  1.
         13   -1    0    0    0    0 -0.00000000000E+00 -0.00000000000E+00 -0.10000000000E+04  0.10000000000E+04  0.00000000000E+00 0.  1.
    9000005    2    1    2  501    0  0.77407261566E+01  0.53207184988E+01 -0.94522036938E+03  0.10015051081E+04  0.33088170987E+03 0.  0.
         13    1    3    3    0    0 -0.63252996051E+02  0.78499416842E+02 -0.75807533475E+02  0.12613438106E+03  0.00000000000E+00 0.  1.
          3    1    3    3  501    0  0.70993722208E+02 -0.73178698343E+02 -0.86941283590E+03  0.87537072701E+03  0.00000000000E+00 0.  1.
         21    1    1    2  502  501 -0.77407261566E+01 -0.53207184988E+01 -0.25809202359E+02  0.27465320191E+02  0.00000000000E+00 0.  1.
<mgrwt>
<rscale>  1 0.30000000E+03</rscale>
<asrwt>0</asrwt>
<pdfrwt beam="1">  1        1 0.10534723E+00 0.30000000E+03</pdfrwt>
<pdfrwt beam="2">0</pdfrwt>
<totfact> 0.31696833E+01</totfact>
</mgrwt>
</event>
<event>
 6    1  0.1940992E-004  0.3000000E+03  0.7818608E-02  0.1093470E+00
          1   -1    0    0  502    0  0.00000000000E+00  0.00000000000E+00  0.34764502959E+02  0.34764502959E+02  0.00000000000E+00 0.  1.
         13   -1    0    0    0    0 -0.00000000000E+00 -0.00000000000E+00 -0.10000000000E+04  0.10000000000E+04  0.00000000000E+00 0.  1.
    9000005    2    1    2  501    0 -0.93072256031E+02  0.26320792247E+01 -0.71389044337E+03  0.76672773554E+03  0.26374700496E+03 0.  0.
         13    1    3    3    0    0 -0.84198686698E+02 -0.92626301073E+02 -0.15274138005E+03  0.19748159325E+03  0.00000000000E+00 0.  1.
          3    1    3    3  501    0 -0.88735693330E+01  0.95258380297E+02 -0.56114906331E+03  0.56924614229E+03  0.00000000000E+00 0.  1.
         21    1    1    2  502  501  0.93072256031E+02 -0.26320792247E+01 -0.25134505367E+03  0.26803676742E+03  0.00000000000E+00 0. -1.
<mgrwt>
<rscale>  1 0.30000000E+03</rscale>
<asrwt>0</asrwt>
<pdfrwt beam="1">  1        1 0.12641664E+00 0.30000000E+03</pdfrwt>
<pdfrwt beam="2">0</pdfrwt>
<totfact> 0.23938222E+01</totfact>
</mgrwt>
</event>
<event>
 6    1  0.1940992E-004  0.3000000E+03  0.7818608E-02  0.1093470E+00
          1   -1    0    0  502    0  0.00000000000E+00  0.00000000000E+00  0.35438980495E+02  0.35438980495E+02  0.00000000000E+00 0.  1.
         13   -1    0    0    0    0 -0.00000000000E+00 -0.00000000000E+00 -0.10000000000E+04  0.10000000000E+04  0.00000000000E+00 0.  1.
    9000005    2    1    2  501    0  0.22421037807E+02 -0.12660091490E+01 -0.95582689391E+03  0.10113435314E+04  0.32970650849E+03 0.  0.
         13    1    3    3    0    0 -0.11379514873E+03 -0.10428884451E+03 -0.36421386008E+03  0.39557203495E+03  0.00000000000E+00 0.  1.
          1    1    3    3  501    0  0.13621618654E+03  0.10302283536E+03 -0.59161303383E+03  0.61577149648E+03  0.00000000000E+00 0.  1.
         21    1    1    2  502  501 -0.22421037807E+02  0.12660091490E+01 -0.87341255961E+01  0.24095449061E+02  0.00000000000E+00 0.  1.
<mgrwt>
<rscale>  1 0.30000000E+03</rscale>
<asrwt>0</asrwt>
<pdfrwt beam="1">  1        1 0.12886929E+00 0.30000000E+03</pdfrwt>
<pdfrwt beam="2">0</pdfrwt>
<totfact> 0.23207128E+01</totfact>
</mgrwt>
</event>
<event>
 6    1  0.1940992E-004  0.3000000E+03  0.7818608E-02  0.1093470E+00
          1   -1    0    0  502    0  0.00000000000E+00  0.00000000000E+00  0.42440317681E+02  0.42440317681E+02  0.00000000000E+00 0.  1.
         13   -1    0    0    0    0 -0.00000000000E+00 -0.00000000000E+00 -0.10000000000E+04  0.10000000000E+04  0.00000000000E+00 0.  1.
    9000005    2    1    2  501    0  0.16922410024E+01 -0.13125730670E+02 -0.97123911783E+03  0.10234067830E+04  0.32230555546E+03 0.  0.
         13    1    3    3    0    0 -0.28201025668E+02  0.12796499998E+03 -0.20209842757E+03  0.24086119134E+03  0.00000000000E+00 0.  1.
          1    1    3    3  501    0  0.29893266670E+02 -0.14109073065E+03 -0.76914069026E+03  0.78254559170E+03  0.00000000000E+00 0.  1.
         21    1    1    2  502  501 -0.16922410024E+01  0.13125730670E+02  0.13679435509E+02  0.19033534645E+02  0.00000000000E+00 0. -1.
<mgrwt>
<rscale>  1 0.30000000E+03</rscale>
<asrwt>0</asrwt>
<pdfrwt beam="1">  1        1 0.15432875E+00 0.30000000E+03</pdfrwt>
<pdfrwt beam="2">0</pdfrwt>
<totfact> 0.17082083E+01</totfact>
</mgrwt>
</event>
<event>
 6    1  0.1940992E-004  0.3000000E+03  0.7818608E-02  0.1093470E+00
          1   -1    0    0  502    0  0.00000000000E+00  0.00000000000E+00  0.56127050127E+02  0.56127050127E+02  0.00000000000E+00 0.  1.
         13   -1    0    0    0    0 -0.00000000000E+00 -0.00000000000E+00 -0.10000000000E+04  0.10000000000E+04  0.00000000000E+00 0.  1.
    9000005    2    1    2  501    0  0.45467617831E+02  0.60370499749E+02 -0.91938773716E+03  0.97668255911E+03  0.32081631586E+03 0.  0.
         13    1    3    3    0    0  0.71979680309E+01 -0.65580390409E+02 -0.78779022866E+03  0.79054793828E+03  0.00000000000E+00 0.  1.
          1    1    3    3  501    0  0.38269649800E+02  0.12595089016E+03 -0.13159750850E+03  0.18613462083E+03  0.00000000000E+00 0.  1.
         21    1    1    2  502  501 -0.45467617831E+02 -0.60370499749E+02 -0.24485212713E+02  0.79444491016E+02  0.00000000000E+00 0.  1.
<mgrwt>
<rscale>  1 0.30000000E+03</rscale>
<asrwt>0</asrwt>
<pdfrwt beam="1">  1        1 0.20409879E+00 0.30000000E+03</pdfrwt>
<pdfrwt beam="2">0</pdfrwt>
<totfact> 0.97945969E+00</totfact>
</mgrwt>
</event>
<event>
 6    1  0.1940992E-004  0.3000000E+03  0.7818608E-02  0.1093470E+00
          1   -1    0    0  502    0  0.00000000000E+00  0.00000000000E+00  0.28549818821E+02  0.28549818821E+02  0.00000000000E+00 0.  1.
         13   -1    0    0    0    0 -0.00000000000E+00 -0.00000000000E+00 -0.10000000000E+04  0.10000000000E+04  0.00000000000E+00 0.  1.
    9000005    2    1    2  501    0  0.24447339424E+01 -0.87471901704E+01 -0.95635628595E+03  0.10109340380E+04  0.32754815448E+03 0.  0.
         13    1    3    3    0    0  0.14248594711E+03 -0.66214459795E+01 -0.22584783010E+03  0.26712044294E+03  0.00000000000E+00 0.  1.
          1    1    3    3  501    0 -0.14004121317E+03 -0.21257441909E+01 -0.73050845584E+03  0.74381359508E+03  0.00000000000E+00 0.  1.
         21    1    1    2  502  501 -0.24447339424E+01  0.87471901704E+01 -0.15093895233E+02  0.17615780801E+02  0.00000000000E+00 0. -1.
<mgrwt>
<rscale>  1 0.30000000E+03</rscale>
<asrwt>0</asrwt>
<pdfrwt beam="1">  1        1 0.10381774E+00 0.30000000E+03</pdfrwt>
<pdfrwt beam="2">0</pdfrwt>
<totfact> 0.32391921E+01</totfact>
</mgrwt>
</event>
<event>
 6    1  0.1940992E-004  0.3000000E+03  0.7818608E-02  0.1093470E+00
          1   -1    0    0  502    0  0.00000000000E+00  0.00000000000E+00  0.29656975023E+02  0.29656975023E+02  0.00000000000E+00 0.  1.
         13   -1    0    0    0    0 -0.00000000000E+00 -0.00000000000E+00 -0.10000000000E+04  0.10000000000E+04  0.00000000000E+00 0.  1.
    9000005    2    1    2  501    0 -0.47061347785E+01  0.19067692790E+02 -0.96578946524E+03  0.10094961338E+04  0.29316791837E+03 0.  0.
         13    1    3    3    0    0  0.10337978425E+03 -0.87858051996E+02 -0.55884682798E+03  0.57507929386E+03  0.00000000000E+00 0.  1.
          3    1    3    3  501    0 -0.10808591903E+03  0.10692574479E+03 -0.40694263726E+03  0.43441683993E+03  0.00000000000E+00 0.  1.
         21    1    1    2  502  501  0.47061347785E+01 -0.19067692790E+02 -0.45535597411E+01  0.20160841233E+02  0.00000000000E+00 0. -1.
<mgrwt>
<rscale>  1 0.30000000E+03</rscale>
<asrwt>0</asrwt>
<pdfrwt beam="1">  1        1 0.10784377E+00 0.30000000E+03</pdfrwt>
<pdfrwt beam="2">0</pdfrwt>
<totfact> 0.30607692E+01</totfact>
</mgrwt>
</event>
<event>
 6    1  0.1940992E-004  0.3000000E+03  0.7818608E-02  0.1093470E+00
          1   -1    0    0  502    0  0.00000000000E+00  0.00000000000E+00  0.32106405452E+02  0.32106405452E+02  0.00000000000E+00 0.  1.
         13   -1    0    0    0    0 -0.00000000000E+00 -0.00000000000E+00 -0.10000000000E+04  0.10000000000E+04  0.00000000000E+00 0.  1.
    9000005    2    1    2  501    0  0.99418983290E+01 -0.74020257718E+01 -0.96585212061E+03  0.10195446005E+04  0.32626253567E+03 0.  0.
         13    1    3    3    0    0  0.11921783738E+03 -0.11418820584E+03 -0.38429592358E+03  0.41825255048E+03  0.00000000000E+00 0.  1.
          1    1    3    3  501    0 -0.10927593905E+03  0.10678618007E+03 -0.58155619703E+03  0.60129205001E+03  0.00000000000E+00 0.  1.
         21    1    1    2  502  501 -0.99418983290E+01  0.74020257718E+01 -0.20414739361E+01  0.12561804956E+02  0.00000000000E+00 0. -1.
<mgrwt>
<rscale>  1 0.30000000E+03</rscale>
<asrwt>0</asrwt>
<pdfrwt beam="1">  1        1 0.11675081E+00 0.30000000E+03</pdfrwt>
<pdfrwt beam="2">0</pdfrwt>
<totfact> 0.27127965E+01</totfact>
</mgrwt>
</event>
<event>
 6    1  0.1940992E-004  0.3000000E+03  0.7818608E-02  0.1093470E+00
          1   -1    0    0  502    0  0.00000000000E+00  0.00000000000E+00  0.30433192992E+02  0.30433192992E+02  0.00000000000E+00 0.  1.
         13   -1    0    0    0    0 -0.00000000000E+00 -0.00000000000E+00 -0.10000000000E+04  0.10000000000E+04  0.00000000000E+00 0.  1.
    9000005    2    1    2  501    0 -0.24481934913E+02 -0.14974841793E+02 -0.90492631052E+03  0.95970834015E+03  0.31831566039E+03 0.  0.
         13    1    3    3    0    0  0.69708930304E+02 -0.65037592681E+02 -0.81394438617E+03  0.81950880850E+03  0.00000000000E+00 0.  1.
          1    1    3    3  501    0 -0.94190865217E+02  0.50062750888E+02 -0.90981924352E+02  0.14019953165E+03  0.00000000000E+00 0.  1.
         21    1    1    2  502  501  0.24481934913E+02  0.14974841793E+02 -0.64640496485E+02  0.70724852843E+02  0.00000000000E+00 0.  1.
<mgrwt>
<rscale>  1 0.30000000E+03</rscale>
<asrwt>0</asrwt>
<pdfrwt beam="1">  1        1 0.11066639E+00 0.30000000E+03</pdfrwt>
<pdfrwt beam="2">0</pdfrwt>
<totfact> 0.29439679E+01</totfact>
</mgrwt>
</event>
<event>
 6    1  0.1940992E-004  0.3000000E+03  0.7818608E-02  0.1093470E+00
          1   -1    0    0  502    0  0.00000000000E+00  0.00000000000E+00  0.29153837649E+02  0.29153837649E+02  0.00000000000E+00 0.  1.
         13   -1    0    0    0    0 -0.00000000000E+00 -0.00000000000E+00 -0.10000000000E+04  0.10000000000E+04  0.00000000000E+00 0.  1.
    9000005    2    1    2  501    0 -0.71316424394E+01  0.12149322128E+02 -0.95683600618E+03  0.10092855003E+04  0.32081710068E+03 0.  0.
         13    1    3    3    0    0  0.36601064836E+02 -0.14398154783E+03 -0.58627215044E+03  0.60480191670E+03  0.00000000000E+00 0.  1.
          1    1    3    3  501    0 -0.43732707276E+02  0.15613086996E+03 -0.37056385574E+03  0.40448358362E+03  0.00000000000E+00 0.  1.
         21    1    1    2  502  501  0.71316424394E+01 -0.12149322128E+02 -0.14010156169E+02  0.19868337322E+02  0.00000000000E+00 0. -1.
<mgrwt>
<rscale>  1 0.30000000E+03</rscale>
<asrwt>0</asrwt>
<pdfrwt beam="1">  1        1 0.10601418E+00 0.30000000E+03</pdfrwt>
<pdfrwt beam="2">0</pdfrwt>
<totfact> 0.31400479E+01</totfact>
</mgrwt>
</event>
<event>
 6    1  0.1940992E-004  0.3000000E+03  0.7818608E-02  0.1093470E+00
          1   -1    0    0  502    0  0.00000000000E+00  0.00000000000E+00  0.27495575375E+02  0.27495575375E+02  0.00000000000E+00 0.  1.
         13   -1    0    0    0    0 -0.00000000000E+00 -0.00000000000E+00 -0.10000000000E+04  0.10000000000E+04  0.00000000000E+00 0.  1.
    9000005    2    1    2  501    0  0.11413532998E+02 -0.27181686072E+01 -0.92055473340E+03  0.97423745304E+03  0.31871608141E+03 0.  0.
         13    1    3    3    0    0  0.98888620053E+01  0.15761053409E+03 -0.42511114753E+03  0.45349570869E+03  0.00000000000E+00 0.  1.
          3    1    3    3  501    0  0.15246709932E+01 -0.16032870269E+03 -0.49544358587E+03  0.52074174435E+03  0.00000000000E+00 0.  1.
         21    1    1    2  502  501 -0.11413532998E+02  0.27181686072E+01 -0.51949691225E+02  0.53258122334E+02  0.00000000000E+00 0.  1.
<mgrwt>
<rscale>  1 0.30000000E+03</rscale>
<asrwt>0</asrwt>
<pdfrwt beam="1">  1        1 0.99984121E-01 0.30000000E+03</pdfrwt>
<pdfrwt beam="2">0</pdfrwt>
<totfact> 0.34234897E+01</totfact>
</mgrwt>
</event>
<event>
 6    1  0.1940992E-004  0.3000000E+03  0.7818608E-02  0.1093470E+00
          1   -1    0    0  502    0  0.00000000000E+00  0.00000000000E+00  0.28077947122E+02  0.28077947122E+02  0.00000000000E+00 0.  1.
         13   -1    0    0    0    0 -0.00000000000E+00 -0.00000000000E+00 -0.10000000000E+04  0.10000000000E+04  0.00000000000E+00 0.  1.
    9000005    2    1    2  501    0 -0.10729621583E+02  0.51075107986E+01 -0.95665482167E+03  0.10087311181E+04  0.31970112492E+03 0.  0.
         13    1    3    3    0    0  0.43837057060E+01 -0.18187135773E+02  0.22455369256E+02  0.29227254263E+02  0.00000000000E+00 0.  1.
          3    1    3    3  501    0 -0.15113327289E+02  0.23294646571E+02 -0.97911019093E+03  0.97950386380E+03  0.00000000000E+00 0.  1.
         21    1    1    2  502  501  0.10729621583E+02 -0.51075107986E+01 -0.15267231206E+02  0.19346829058E+02  0.00000000000E+00 0.  1.
<mgrwt>
<rscale>  1 0.30000000E+03</rscale>
<asrwt>0</asrwt>
<pdfrwt beam="1">  1        1 0.10210184E+00 0.30000000E+03</pdfrwt>
<pdfrwt beam="2">0</pdfrwt>
<totfact> 0.33198409E+01</totfact>
</mgrwt>
</event>
<event>
 6    1  0.1940992E-004  0.3000000E+03  0.7818608E-02  0.1093470E+00
          1   -1    0    0  502    0  0.00000000000E+00  0.00000000000E+00  0.31819046720E+02  0.31819046720E+02  0.00000000000E+00 0.  1.
         13   -1    0    0    0    0 -0.00000000000E+00 -0.00000000000E+00 -0.10000000000E+04  0.10000000000E+04  0.00000000000E+00 0.  1.
    9000005    2    1    2  501    0  0.16155589784E+02 -0.10096088625E+01 -0.96056327439E+03  0.10139290656E+04  0.32420413887E+03 0.  0.
         13    1    3    3    0    0  0.83399556869E+02 -0.18929015052E+01 -0.42901119373E+02  0.93806051007E+02  0.00000000000E+00 0.  1.
          3    1    3    3  501    0 -0.67243967085E+02  0.88329264270E+00 -0.91766215501E+03  0.92012301463E+03  0.00000000000E+00 0.  1.
         21    1    1    2  502  501 -0.16155589784E+02  0.10096088625E+01 -0.76176788945E+01  0.17889981081E+02  0.00000000000E+00 0.  1.
<mgrwt>
<rscale>  1 0.30000000E+03</rscale>
<asrwt>0</asrwt>
<pdfrwt beam="1">  1        1 0.11570587E+00 0.30000000E+03</pdfrwt>
<pdfrwt beam="2">0</pdfrwt>
<totfact> 0.27506354E+01</totfact>
</mgrwt>
</event>
<event>
 6    1  0.1940992E-004  0.3000000E+03  0.7818608E-02  0.1093470E+00
          1   -1    0    0  502    0  0.00000000000E+00  0.00000000000E+00  0.37098983368E+02  0.37098983368E+02  0.00000000000E+00 0.  1.
         13   -1    0    0    0    0 -0.00000000000E+00 -0.00000000000E+00 -0.10000000000E+04  0.10000000000E+04  0.00000000000E+00 0.  1.
    9000005    2    1    2  501    0 -0.17521667068E+02 -0.47316629047E+02 -0.86131155771E+03  0.92366931192E+03  0.32979012437E+03 0.  0.
         13    1    3    3    0    0  0.96171286676E+02 -0.12736468689E+03 -0.65989384847E+03  0.67891867782E+03  0.00000000000E+00 0.  1.
          1    1    3    3  501    0 -0.11369295374E+03  0.80048057839E+02 -0.20141770924E+03  0.24475063409E+03  0.00000000000E+00 0.  1.
         21    1    1    2  502  501  0.17521667068E+02  0.47316629047E+02 -0.10158945892E+03  0.11342967145E+03  0.00000000000E+00 0.  1.
<mgrwt>
<rscale>  1 0.30000000E+03</rscale>
<asrwt>0</asrwt>
<pdfrwt beam="1">  1        1 0.13490568E+00 0.30000000E+03</pdfrwt>
<pdfrwt beam="2">0</pdfrwt>
<totfact> 0.21527463E+01</totfact>
</mgrwt>
</event>
<event>
 6    1  0.1940992E-004  0.3000000E+03  0.7818608E-02  0.1093470E+00
          1   -1    0    0  502    0  0.00000000000E+00  0.00000000000E+00  0.28312327434E+02  0.28312327434E+02  0.00000000000E+00 0.  1.
         13   -1    0    0    0    0 -0.00000000000E+00 -0.00000000000E+00 -0.10000000000E+04  0.10000000000E+04  0.00000000000E+00 0.  1.
    9000005    2    1    2  501    0  0.13719012343E+02 -0.24403518085E+01 -0.93859359502E+03  0.99240432574E+03  0.32204695702E+03 0.  0.
         13    1    3    3    0    0  0.74832041656E+02 -0.96402909143E+02 -0.13891052842E+03  0.18490400281E+03  0.00000000000E+00 0.  1.
          3    1    3    3  501    0 -0.61113029313E+02  0.93962557335E+02 -0.79968306660E+03  0.80750032293E+03  0.00000000000E+00 0.  1.
         21    1    1    2  502  501 -0.13719012343E+02  0.24403518085E+01 -0.33094077550E+02  0.35908001692E+02  0.00000000000E+00 0.  1.
<mgrwt>
<rscale>  1 0.30000000E+03</rscale>
<asrwt>0</asrwt>
<pdfrwt beam="1">  1        1 0.10295414E+00 0.30000000E+03</pdfrwt>
<pdfrwt beam="2">0</pdfrwt>
<totfact> 0.32794208E+01</totfact>
</mgrwt>
</event>
<event>
 6    1  0.1940992E-004  0.3000000E+03  0.7818608E-02  0.1093470E+00
          1   -1    0    0  502    0  0.00000000000E+00  0.00000000000E+00  0.30497315810E+02  0.30497315810E+02  0.00000000000E+00 0.  1.
         13   -1    0    0    0    0 -0.00000000000E+00 -0.00000000000E+00 -0.10000000000E+04  0.10000000000E+04  0.00000000000E+00 0.  1.
    9000005    2    1    2  501    0  0.37488097471E+01 -0.14239451675E+02 -0.95866125272E+03  0.10122120158E+04  0.32453805939E+03 0.  0.
         13    1    3    3    0    0 -0.84957782056E+02 -0.12729813713E+03 -0.28602618112E+03  0.32439731308E+03  0.00000000000E+00 0.  1.
          3    1    3    3  501    0  0.88706591803E+02  0.11305868546E+03 -0.67263507160E+03  0.68781470276E+03  0.00000000000E+00 0.  1.
         21    1    1    2  502  501 -0.37488097471E+01  0.14239451675E+02 -0.10841431465E+02  0.18285299963E+02  0.00000000000E+00 0. -1.
<mgrwt>
<rscale>  1 0.30000000E+03</rscale>
<asrwt>0</asrwt>
<pdfrwt beam="1">  1        1 0.11089956E+00 0.30000000E+03</pdfrwt>
<pdfrwt beam="2">0</pdfrwt>
<totfact> 0.29346038E+01</totfact>
</mgrwt>
</event>
<event>
 6    1  0.1940992E-004  0.3000000E+03  0.7818608E-02  0.1093470E+00
          1   -1    0    0  502    0  0.00000000000E+00  0.00000000000E+00  0.32717924036E+02  0.32717924036E+02  0.00000000000E+00 0.  1.
         13   -1    0    0    0    0 -0.00000000000E+00 -0.00000000000E+00 -0.10000000000E+04  0.10000000000E+04  0.00000000000E+00 0.  1.
    9000005    2    1    2  501    0 -0.56812020269E-01  0.99667261981E+01 -0.97118396994E+03  0.10220144837E+04  0.31814456231E+03 0.  0.
         13    1    3    3    0    0 -0.10241426612E+03  0.97324461889E+02 -0.74937780602E+03  0.76257971973E+03  0.00000000000E+00 0.  1.
          1    1    3    3  501    0  0.10235745410E+03 -0.87357735691E+02 -0.22180616393E+03  0.25943476396E+03  0.00000000000E+00 0.  1.
         21    1    1    2  502  501  0.56812020269E-01 -0.99667261981E+01  0.39018939806E+01  0.10703440351E+02  0.00000000000E+00 0. -1.
<mgrwt>
<rscale>  1 0.30000000E+03</rscale>
<asrwt>0</asrwt>
<pdfrwt beam="1">  1        1 0.11897452E+00 0.30000000E+03</pdfrwt>
<pdfrwt beam="2">0</pdfrwt>
<totfact> 0.26346231E+01</totfact>
</mgrwt>
</event>
<event>
 6    1  0.1940992E-004  0.3000000E+03  0.7818608E-02  0.1093470E+00
          1   -1    0    0  502    0  0.00000000000E+00  0.00000000000E+00  0.66989019601E+02  0.66989019601E+02  0.00000000000E+00 0.  1.
         13   -1    0    0    0    0 -0.00000000000E+00 -0.00000000000E+00 -0.10000000000E+04  0.10000000000E+04  0.00000000000E+00 0.  1.
    9000005    2    1    2  501    0  0.14699415159E+02 -0.11345276364E+02 -0.97099768635E+03  0.10247068965E+04  0.32686836619E+03 0.  0.
         13    1    3    3    0    0 -0.94379959339E+02 -0.72149396590E+02 -0.13667087509E+03  0.18108572625E+03  0.00000000000E+00 0.  1.
          1    1    3    3  501    0  0.10907937450E+03  0.60804120226E+02 -0.83432681126E+03  0.84362117029E+03  0.00000000000E+00 0.  1.
         21    1    1    2  502  501 -0.14699415159E+02  0.11345276364E+02  0.37986705950E+02  0.42282123063E+02  0.00000000000E+00 0.  1.
<mgrwt>
<rscale>  1 0.30000000E+03</rscale>
<asrwt>0</asrwt>
<pdfrwt beam="1">  1        1 0.24359695E+00 0.30000000E+03</pdfrwt>
<pdfrwt beam="2">0</pdfrwt>
<totfact> 0.63909748E+00</totfact>
</mgrwt>
</event>
<event>
 6    1  0.1940992E-004  0.3000000E+03  0.7818608E-02  0.1093470E+00
          1   -1    0    0  502    0  0.00000000000E+00  0.00000000000E+00  0.13668425308E+02  0.13668425308E+02  0.00000000000E+00 0.  1.
         13   -1    0    0    0    0 -0.00000000000E+00 -0.00000000000E+00 -0.10000000000E+04  0.10000000000E+04  0.00000000000E+00 0.  1.
    9000005    2    1    2  501    0 -0.41320073880E+02 -0.58767923627E+02 -0.66393950950E+03  0.68336907464E+03  0.14497104037E+03 0.  0.
         13    1    3    3    0    0 -0.27433398566E+02  0.19967998909E+02 -0.49819237204E+03  0.49934652486E+03  0.00000000000E+00 0.  1.
          3    1    3    3  501    0 -0.13886675314E+02 -0.78735922537E+02 -0.16574713746E+03  0.18402254977E+03  0.00000000000E+00 0.  1.
         21    1    1    2  502  501  0.41320073880E+02  0.58767923627E+02 -0.32239206520E+03  0.33029935067E+03  0.00000000000E+00 0.  1.
<mgrwt>
<rscale>  1 0.30000000E+03</rscale>
<asrwt>0</asrwt>
<pdfrwt beam="1">  1        1 0.49703470E-01 0.30000000E+03</pdfrwt>
<pdfrwt beam="2">0</pdfrwt>
<totfact> 0.88942266E+01</totfact>
</mgrwt>
</event>
<event>
 6    1  0.1940992E-004  0.3000000E+03  0.7818608E-02  0.1093470E+00
          1   -1    0    0  502    0  0.00000000000E+00  0.00000000000E+00  0.35594871057E+02  0.35594871057E+02  0.00000000000E+00 0.  1.
         13   -1    0    0    0    0 -0.00000000000E+00 -0.00000000000E+00 -0.10000000000E+04  0.10000000000E+04  0.00000000000E+00 0.  1.
    9000005    2    1    2  501    0  0.32100802545E+02  0.26011383968E+01 -0.94229827637E+03  0.99653158425E+03  0.32266380232E+03 0.  0.
         13    1    3    3    0    0  0.37401397545E+02  0.13180880902E+03 -0.76449393536E+03  0.77667458042E+03  0.00000000000E+00 0.  1.
          3    1    3    3  501    0 -0.53005949998E+01 -0.12920767062E+03 -0.17780434101E+03  0.21985700384E+03  0.00000000000E+00 0.  1.
         21    1    1    2  502  501 -0.32100802545E+02 -0.26011383968E+01 -0.22106852577E+02  0.39063286803E+02  0.00000000000E+00 0. -1.
<mgrwt>
<rscale>  1 0.30000000E+03</rscale>
<asrwt>0</asrwt>
<pdfrwt beam="1">  1        1 0.12943617E+00 0.30000000E+03</pdfrwt>
<pdfrwt beam="2">0</pdfrwt>
<totfact> 0.23042259E+01</totfact>
</mgrwt>
</event>
<event>
 6    1  0.1940992E-004  0.3000000E+03  0.7818608E-02  0.1093470E+00
          1   -1    0    0  502    0  0.00000000000E+00  0.00000000000E+00  0.35219052025E+02  0.35219052025E+02  0.00000000000E+00 0.  1.
         13   -1    0    0    0    0 -0.00000000000E+00 -0.00000000000E+00 -0.10000000000E+04  0.10000000000E+04  0.00000000000E+00 0.  1.
    9000005    2    1    2  501    0  0.23434844602E+02  0.14712600509E+02 -0.95287219464E+03  0.10050947933E+04  0.31856627526E+03 0.  0.
         13    1    3    3    0    0  0.47133883316E+02 -0.12173576550E+03 -0.73801388267E+03  0.74947027331E+03  0.00000000000E+00 0.  1.
          3    1    3    3  501    0 -0.23699038714E+02  0.13644836600E+03 -0.21485831196E+03  0.25562452003E+03  0.00000000000E+00 0.  1.
         21    1    1    2  502  501 -0.23434844602E+02 -0.14712600509E+02 -0.11908753339E+02  0.30124258685E+02  0.00000000000E+00 0.  1.
<mgrwt>
<rscale>  1 0.30000000E+03</rscale>
<asrwt>0</asrwt>
<pdfrwt beam="1">  1        1 0.12806955E+00 0.30000000E+03</pdfrwt>
<pdfrwt beam="2">0</pdfrwt>
<totfact> 0.23442323E+01</totfact>
</mgrwt>
</event>
<event>
 6    1  0.1940992E-004  0.3000000E+03  0.7818608E-02  0.1093470E+00
          1   -1    0    0  502    0  0.00000000000E+00  0.00000000000E+00  0.33805488610E+02  0.33805488610E+02  0.00000000000E+00 0.  1.
         13   -1    0    0    0    0 -0.00000000000E+00 -0.00000000000E+00 -0.10000000000E+04  0.10000000000E+04  0.00000000000E+00 0.  1.
    9000005    2    1    2  501    0  0.16898613264E+02 -0.15627907451E+02 -0.95111773367E+03  0.10062899685E+04  0.32781818550E+03 0.  0.
         13    1    3    3    0    0  0.15592722840E+03 -0.69250422350E+02 -0.62266102423E+03  0.64561263359E+03  0.00000000000E+00 0.  1.
          1    1    3    3  501    0 -0.13902861514E+03  0.53622514899E+02 -0.32845670944E+03  0.36067733489E+03  0.00000000000E+00 0.  1.
         21    1    1    2  502  501 -0.16898613264E+02  0.15627907451E+02 -0.15076777724E+02  0.27515520131E+02  0.00000000000E+00 0.  1.
<mgrwt>
<rscale>  1 0.30000000E+03</rscale>
<asrwt>0</asrwt>
<pdfrwt beam="1">  1        1 0.12292931E+00 0.30000000E+03</pdfrwt>
<pdfrwt beam="2">0</pdfrwt>
<totfact> 0.25029192E+01</totfact>
</mgrwt>
</event>
<event>
 6    1  0.1940992E-004  0.3000000E+03  0.7818608E-02  0.1093470E+00
          3   -1    0    0  502    0  0.00000000000E+00  0.00000000000E+00  0.38528933818E+02  0.38528933818E+02  0.00000000000E+00 0.  1.
         13   -1    0    0    0    0 -0.00000000000E+00 -0.00000000000E+00 -0.10000000000E+04  0.10000000000E+04  0.00000000000E+00 0.  1.
    9000005    2    1    2  501    0 -0.33519764315E+02  0.15467452072E+02 -0.94708975162E+03  0.99891026547E+03  0.31540435025E+03 0.  0.
         13    1    3    3    0    0 -0.38429438488E+02  0.79098072582E+02 -0.53270950711E+02  0.10281595702E+03  0.00000000000E+00 0.  1.
          1    1    3    3  501    0  0.49096741731E+01 -0.63630620510E+02 -0.89381880091E+03  0.89609430845E+03  0.00000000000E+00 0.  1.
         21    1    1    2  502  501  0.33519764315E+02 -0.15467452072E+02 -0.14381314558E+02  0.39618668349E+02  0.00000000000E+00 0. -1.
<mgrwt>
<rscale>  1 0.30000000E+03</rscale>
<asrwt>0</asrwt>
<pdfrwt beam="1">  1        3 0.14010551E+00 0.30000000E+03</pdfrwt>
<pdfrwt beam="2">0</pdfrwt>
<totfact> 0.13351858E+00</totfact>
</mgrwt>
</event>
<event>
 6    1  0.1940992E-004  0.3000000E+03  0.7818608E-02  0.1093470E+00
          1   -1    0    0  502    0  0.00000000000E+00  0.00000000000E+00  0.48854952436E+02  0.48854952436E+02  0.00000000000E+00 0.  1.
         13   -1    0    0    0    0 -0.00000000000E+00 -0.00000000000E+00 -0.10000000000E+04  0.10000000000E+04  0.00000000000E+00 0.  1.
    9000005    2    1    2  501    0  0.12195879782E+02 -0.10601241248E+02 -0.97621160614E+03  0.10190311673E+04  0.29184635375E+03 0.  0.
         13    1    3    3    0    0 -0.27205091384E+02  0.90506739547E+02 -0.83799206107E+03  0.84330438237E+03  0.00000000000E+00 0.  1.
          1    1    3    3  501    0  0.39400971166E+02 -0.10110798079E+03 -0.13821954507E+03  0.17572678495E+03  0.00000000000E+00 0.  1.
         21    1    1    2  502  501 -0.12195879782E+02  0.10601241248E+02  0.25066558581E+02  0.29823785118E+02  0.00000000000E+00 0.  1.
<mgrwt>
<rscale>  1 0.30000000E+03</rscale>
<asrwt>0</asrwt>
<pdfrwt beam="1">  1        1 0.17765475E+00 0.30000000E+03</pdfrwt>
<pdfrwt beam="2">0</pdfrwt>
<totfact> 0.13112920E+01</totfact>
</mgrwt>
</event>
<event>
 6    1  0.1940992E-004  0.3000000E+03  0.7818608E-02  0.1093470E+00
          1   -1    0    0  502    0  0.00000000000E+00  0.00000000000E+00  0.30315901126E+02  0.30315901126E+02  0.00000000000E+00 0.  1.
         13   -1    0    0    0    0 -0.00000000000E+00 -0.00000000000E+00 -0.10000000000E+04  0.10000000000E+04  0.00000000000E+00 0.  1.
    9000005    2    1    2  501    0  0.48692129600E+01 -0.10106789340E+02 -0.96711208585E+03  0.10188062670E+04  0.32021019152E+03 0.  0.
         13    1    3    3    0    0  0.11554603082E+03  0.69044987665E+02 -0.20909830396E+03  0.24867689133E+03  0.00000000000E+00 0.  1.
          3    1    3    3  501    0 -0.11067681786E+03 -0.79151777005E+02 -0.75801378189E+03  0.77012937572E+03  0.00000000000E+00 0.  1.
         21    1    1    2  502  501 -0.48692129600E+01  0.10106789340E+02 -0.25720130238E+01  0.11509634078E+02  0.00000000000E+00 0.  1.
<mgrwt>
<rscale>  1 0.30000000E+03</rscale>
<asrwt>0</asrwt>
<pdfrwt beam="1">  1        1 0.11023987E+00 0.30000000E+03</pdfrwt>
<pdfrwt beam="2">0</pdfrwt>
<totfact> 0.29612063E+01</totfact>
</mgrwt>
</event>
<event>
 6    1  0.1940992E-004  0.3000000E+03  0.7818608E-02  0.1093470E+00
          1   -1    0    0  502    0  0.00000000000E+00  0.00000000000E+00  0.47607269072E+02  0.47607269072E+02  0.00000000000E+00 0.  1.
         13   -1    0    0    0    0 -0.00000000000E+00 -0.00000000000E+00 -0.10000000000E+04  0.10000000000E+04  0.00000000000E+00 0.  1.
    9000005    2    1    2  501    0 -0.70651458636E+01  0.88160018990E+01 -0.95635453136E+03  0.10356350496E+04  0.39723837707E+03 0.  0.
         13    1    3    3    0    0 -0.75908357210E+02 -0.15246906171E+03 -0.21748438076E+03  0.27623965926E+03  0.00000000000E+00 0.  1.
          1    1    3    3  501    0  0.68843211346E+02  0.16128506361E+03 -0.73887015059E+03  0.75939539038E+03  0.00000000000E+00 0.  1.
         21    1    1    2  502  501  0.70651458636E+01 -0.88160018990E+01  0.39618004285E+01  0.11972219435E+02  0.00000000000E+00 0. -1.
<mgrwt>
<rscale>  1 0.30000000E+03</rscale>
<asrwt>0</asrwt>
<pdfrwt beam="1">  1        1 0.17311771E+00 0.30000000E+03</pdfrwt>
<pdfrwt beam="2">0</pdfrwt>
<totfact> 0.13795624E+01</totfact>
</mgrwt>
</event>
<event>
 6    1  0.1940992E-004  0.3000000E+03  0.7818608E-02  0.1093470E+00
          1   -1    0    0  502    0  0.00000000000E+00  0.00000000000E+00  0.59078351929E+02  0.59078351929E+02  0.00000000000E+00 0.  1.
         13   -1    0    0    0    0 -0.00000000000E+00 -0.00000000000E+00 -0.10000000000E+04  0.10000000000E+04  0.00000000000E+00 0.  1.
    9000005    2    1    2  501    0  0.83225166209E+02  0.12755521988E+02 -0.58589945144E+03  0.69420866049E+03  0.36270975375E+03 0.  0.
         13    1    3    3    0    0  0.19004439185E+03  0.70041438349E+02 -0.51590762506E+03  0.55424123949E+03  0.00000000000E+00 0.  1.
          3    1    3    3  501    0 -0.10681922564E+03 -0.57285916360E+02 -0.69991826382E+02  0.13996742100E+03  0.00000000000E+00 0.  1.
         21    1    1    2  502  501 -0.83225166209E+02 -0.12755521988E+02 -0.35502219663E+03  0.36486969144E+03  0.00000000000E+00 0.  1.
<mgrwt>
<rscale>  1 0.30000000E+03</rscale>
<asrwt>0</asrwt>
<pdfrwt beam="1">  1        1 0.21483082E+00 0.30000000E+03</pdfrwt>
<pdfrwt beam="2">0</pdfrwt>
<totfact> 0.87168825E+00</totfact>
</mgrwt>
</event>
<event>
 6    1  0.1940992E-004  0.3000000E+03  0.7818608E-02  0.1093470E+00
          3   -1    0    0  502    0  0.00000000000E+00  0.00000000000E+00  0.30060956627E+02  0.30060956627E+02  0.00000000000E+00 0.  1.
         13   -1    0    0    0    0 -0.00000000000E+00 -0.00000000000E+00 -0.10000000000E+04  0.10000000000E+04  0.00000000000E+00 0.  1.
    9000005    2    1    2  501    0  0.33159276436E+01  0.19491593243E+02 -0.93063136535E+03  0.98606083010E+03  0.32534643826E+03 0.  0.
         13    1    3    3    0    0 -0.10035885812E+03 -0.57927677536E+02 -0.77523518966E+03  0.78384763540E+03  0.00000000000E+00 0.  1.
          3    1    3    3  501    0  0.10367478576E+03  0.77419270779E+02 -0.15539617569E+03  0.20221319470E+03  0.00000000000E+00 0.  1.
         21    1    1    2  502  501 -0.33159276436E+01 -0.19491593243E+02 -0.39307678019E+02  0.44000126528E+02  0.00000000000E+00 0. -1.
<mgrwt>
<rscale>  1 0.30000000E+03</rscale>
<asrwt>0</asrwt>
<pdfrwt beam="1">  1        3 0.10931280E+00 0.30000000E+03</pdfrwt>
<pdfrwt beam="2">0</pdfrwt>
<totfact> 0.30684579E+00</totfact>
</mgrwt>
</event>
<event>
 6    1  0.1940992E-004  0.3000000E+03  0.7818608E-02  0.1093470E+00
          3   -1    0    0  502    0  0.00000000000E+00  0.00000000000E+00  0.29068271420E+02  0.29068271420E+02  0.00000000000E+00 0.  1.
         13   -1    0    0    0    0 -0.00000000000E+00 -0.00000000000E+00 -0.10000000000E+04  0.10000000000E+04  0.00000000000E+00 0.  1.
    9000005    2    1    2  501    0 -0.16725049915E+02  0.44484288163E+01 -0.95546494509E+03  0.10058575583E+04  0.31390548006E+03 0.  0.
         13    1    3    3    0    0 -0.34267070437E+02  0.77263326258E+02 -0.51879474642E+02  0.99173250375E+02  0.00000000000E+00 0.  1.
          1    1    3    3  501    0  0.17542020523E+02 -0.72814897441E+02 -0.90358547045E+03  0.90668430789E+03  0.00000000000E+00 0.  1.
         21    1    1    2  502  501  0.16725049915E+02 -0.44484288163E+01 -0.15466783493E+02  0.23210713156E+02  0.00000000000E+00 0.  1.
<mgrwt>
<rscale>  1 0.30000000E+03</rscale>
<asrwt>0</asrwt>
<pdfrwt beam="1">  1        3 0.10570303E+00 0.30000000E+03</pdfrwt>
<pdfrwt beam="2">0</pdfrwt>
<totfact> 0.33730693E+00</totfact>
</mgrwt>
</event>
<event>
 6    1  0.1940992E-004  0.3000000E+03  0.7818608E-02  0.1093470E+00
          1   -1    0    0  502    0  0.00000000000E+00  0.00000000000E+00  0.28067739086E+02  0.28067739086E+02  0.00000000000E+00 0.  1.
         13   -1    0    0    0    0 -0.00000000000E+00 -0.00000000000E+00 -0.10000000000E+04  0.10000000000E+04  0.00000000000E+00 0.  1.
    9000005    2    1    2  501    0  0.40425398359E+00  0.97150235902E+01 -0.96338660918E+03  0.10151227297E+04  0.31979032582E+03 0.  0.
         13    1    3    3    0    0  0.50494546721E+02  0.15423724591E+03 -0.40899958149E+03  0.44002214141E+03  0.00000000000E+00 0.  1.
          1    1    3    3  501    0 -0.50090292737E+02 -0.14452222232E+03 -0.55438702769E+03  0.57510058828E+03  0.00000000000E+00 0.  1.
         21    1    1    2  502  501 -0.40425398359E+00 -0.97150235902E+01 -0.85456517367E+01  0.12945009395E+02  0.00000000000E+00 0.  1.
<mgrwt>
<rscale>  1 0.30000000E+03</rscale>
<asrwt>0</asrwt>
<pdfrwt beam="1">  1        1 0.10206472E+00 0.30000000E+03</pdfrwt>
<pdfrwt beam="2">0</pdfrwt>
<totfact> 0.33216178E+01</totfact>
</mgrwt>
</event>
<event>
 6    1  0.1940992E-004  0.3000000E+03  0.7818608E-02  0.1093470E+00
          1   -1    0    0  502    0  0.00000000000E+00  0.00000000000E+00  0.29563614484E+02  0.29563614484E+02  0.00000000000E+00 0.  1.
         13   -1    0    0    0    0 -0.00000000000E+00 -0.00000000000E+00 -0.10000000000E+04  0.10000000000E+04  0.00000000000E+00 0.  1.
    9000005    2    1    2  501    0 -0.97549164892E+00  0.10105631414E+02 -0.96278996678E+03  0.10168536542E+04  0.32699198554E+03 0.  0.
         13    1    3    3    0    0  0.13674123320E+03 -0.83818024391E+02 -0.46176965336E+03  0.48883007154E+03  0.00000000000E+00 0.  1.
          1    1    3    3  501    0 -0.13771672485E+03  0.93923655804E+02 -0.50102031342E+03  0.52802358270E+03  0.00000000000E+00 0.  1.
         21    1    1    2  502  501  0.97549164892E+00 -0.10105631414E+02 -0.76464187318E+01  0.12709960254E+02  0.00000000000E+00 0.  1.
<mgrwt>
<rscale>  1 0.30000000E+03</rscale>
<asrwt>0</asrwt>
<pdfrwt beam="1">  1        1 0.10750428E+00 0.30000000E+03</pdfrwt>
<pdfrwt beam="2">0</pdfrwt>
<totfact> 0.30752611E+01</totfact>
</mgrwt>
</event>
<event>
 6    1  0.1940992E-004  0.3000000E+03  0.7818608E-02  0.1093470E+00
          1   -1    0    0  502    0  0.00000000000E+00  0.00000000000E+00  0.52902704046E+02  0.52902704046E+02  0.00000000000E+00 0.  1.
         13   -1    0    0    0    0 -0.00000000000E+00 -0.00000000000E+00 -0.10000000000E+04  0.10000000000E+04  0.00000000000E+00 0.  1.
    9000005    2    1    2  501    0  0.80537381590E+01  0.90940559173E+01 -0.97195632310E+03  0.10252343868E+04  0.32597375540E+03 0.  0.
         13    1    3    3    0    0  0.22912318524E+02  0.16506319811E+03 -0.56862403089E+03  0.59254039712E+03  0.00000000000E+00 0.  1.
          3    1    3    3  501    0 -0.14858580365E+02 -0.15596914219E+03 -0.40333229220E+03  0.43269398963E+03  0.00000000000E+00 0.  1.
         21    1    1    2  502  501 -0.80537381590E+01 -0.90940559173E+01  0.24859027145E+02  0.27668317295E+02  0.00000000000E+00 0.  1.
<mgrwt>
<rscale>  1 0.30000000E+03</rscale>
<asrwt>0</asrwt>
<pdfrwt beam="1">  1        1 0.19237387E+00 0.30000000E+03</pdfrwt>
<pdfrwt beam="2">0</pdfrwt>
<totfact> 0.11138224E+01</totfact>
</mgrwt>
</event>
<event>
 6    1  0.1940992E-004  0.3000000E+03  0.7818608E-02  0.1093470E+00
          1   -1    0    0  502    0  0.00000000000E+00  0.00000000000E+00  0.32519948974E+02  0.32519948974E+02  0.00000000000E+00 0.  1.
         13   -1    0    0    0    0 -0.00000000000E+00 -0.00000000000E+00 -0.10000000000E+04  0.10000000000E+04  0.00000000000E+00 0.  1.
    9000005    2    1    2  501    0 -0.27793622097E+01 -0.20506621536E+02 -0.96168571299E+03  0.10110299342E+04  0.31130992745E+03 0.  0.
         13    1    3    3    0    0  0.14673289630E+03 -0.57698129662E+02 -0.50698338634E+03  0.53093480866E+03  0.00000000000E+00 0.  1.
          1    1    3    3  501    0 -0.14951225851E+03  0.37191508126E+02 -0.45470232664E+03  0.48009512555E+03  0.00000000000E+00 0.  1.
         21    1    1    2  502  501  0.27793622097E+01  0.20506621536E+02 -0.57943380408E+01  0.21490014761E+02  0.00000000000E+00 0. -1.
<mgrwt>
<rscale>  1 0.30000000E+03</rscale>
<asrwt>0</asrwt>
<pdfrwt beam="1">  1        1 0.11825461E+00 0.30000000E+03</pdfrwt>
<pdfrwt beam="2">0</pdfrwt>
<totfact> 0.26595907E+01</totfact>
</mgrwt>
</event>
<event>
 6    1  0.1940992E-004  0.3000000E+03  0.7818608E-02  0.1093470E+00
          1   -1    0    0  502    0  0.00000000000E+00  0.00000000000E+00  0.29389378514E+02  0.29389378514E+02  0.00000000000E+00 0.  1.
         13   -1    0    0    0    0 -0.00000000000E+00 -0.00000000000E+00 -0.10000000000E+04  0.10000000000E+04  0.00000000000E+00 0.  1.
    9000005    2    1    2  501    0 -0.11743453583E+01  0.10354707040E+02 -0.96584412105E+03  0.10179299470E+04  0.32127544526E+03 0.  0.
         13    1    3    3    0    0  0.56088282412E+02 -0.90764482698E+02 -0.10645909650E+03  0.15072367422E+03  0.00000000000E+00 0.  1.
          3    1    3    3  501    0 -0.57262627770E+02  0.10111918974E+03 -0.85938502455E+03  0.86720627275E+03  0.00000000000E+00 0.  1.
         21    1    1    2  502  501  0.11743453583E+01 -0.10354707040E+02 -0.47665004360E+01  0.11459431544E+02  0.00000000000E+00 0.  1.
<mgrwt>
<rscale>  1 0.30000000E+03</rscale>
<asrwt>0</asrwt>
<pdfrwt beam="1">  1        1 0.10687069E+00 0.30000000E+03</pdfrwt>
<pdfrwt beam="2">0</pdfrwt>
<totfact> 0.31025713E+01</totfact>
</mgrwt>
</event>
<event>
 6    1  0.1940992E-004  0.3000000E+03  0.7818608E-02  0.1093470E+00
          1   -1    0    0  502    0  0.00000000000E+00  0.00000000000E+00  0.37833207218E+02  0.37833207218E+02  0.00000000000E+00 0.  1.
         13   -1    0    0    0    0 -0.00000000000E+00 -0.00000000000E+00 -0.10000000000E+04  0.10000000000E+04  0.00000000000E+00 0.  1.
    9000005    2    1    2  501    0 -0.25521593996E+02  0.17662530426E+02 -0.94903274825E+03  0.10041312805E+04  0.32657794539E+03 0.  0.
         13    1    3    3    0    0  0.64848900531E+02 -0.12781487681E+03 -0.29392605499E+03  0.32700848374E+03  0.00000000000E+00 0.  1.
          1    1    3    3  501    0 -0.90370494527E+02  0.14547740723E+03 -0.65510669325E+03  0.67712279672E+03  0.00000000000E+00 0.  1.
         21    1    1    2  502  501  0.25521593996E+02 -0.17662530426E+02 -0.13134044535E+02  0.33701926755E+02  0.00000000000E+00 0.  1.
<mgrwt>
<rscale>  1 0.30000000E+03</rscale>
<asrwt>0</asrwt>
<pdfrwt beam="1">  1        1 0.13757559E+00 0.30000000E+03</pdfrwt>
<pdfrwt beam="2">0</pdfrwt>
<totfact> 0.20835711E+01</totfact>
</mgrwt>
</event>
<event>
 6    1  0.1940992E-004  0.3000000E+03  0.7818608E-02  0.1093470E+00
          1   -1    0    0  502    0  0.00000000000E+00  0.00000000000E+00  0.30452393834E+02  0.30452393834E+02  0.00000000000E+00 0.  1.
         13   -1    0    0    0    0 -0.00000000000E+00 -0.00000000000E+00 -0.10000000000E+04  0.10000000000E+04  0.00000000000E+00 0.  1.
    9000005    2    1    2  501    0 -0.96251329805E+01 -0.12081026700E+01 -0.95772125065E+03  0.10151564669E+04  0.33647965107E+03 0.  0.
         13    1    3    3    0    0  0.13505236427E+03 -0.57697913391E+02 -0.24447053937E+03  0.28519122519E+03  0.00000000000E+00 0.  1.
          1    1    3    3  501    0 -0.14467749725E+03  0.56489810721E+02 -0.71325071127E+03  0.72996524168E+03  0.00000000000E+00 0.  1.
         21    1    1    2  502  501  0.96251329805E+01  0.12081026700E+01 -0.11826355521E+02  0.15295926970E+02  0.00000000000E+00 0.  1.
<mgrwt>
<rscale>  1 0.30000000E+03</rscale>
<asrwt>0</asrwt>
<pdfrwt beam="1">  1        1 0.11073621E+00 0.30000000E+03</pdfrwt>
<pdfrwt beam="2">0</pdfrwt>
<totfact> 0.29411595E+01</totfact>
</mgrwt>
</event>
<event>
 6    1  0.1940992E-004  0.3000000E+03  0.7818608E-02  0.1093470E+00
          1   -1    0    0  502    0  0.00000000000E+00  0.00000000000E+00  0.44762195095E+02  0.44762195095E+02  0.00000000000E+00 0.  1.
         13   -1    0    0    0    0 -0.00000000000E+00 -0.00000000000E+00 -0.10000000000E+04  0.10000000000E+04  0.00000000000E+00 0.  1.
    9000005    2    1    2  501    0  0.13222735111E+02  0.16445215097E+02 -0.95868789177E+03  0.10233802185E+04  0.35746232247E+03 0.  0.
         13    1    3    3    0    0 -0.14858504024E+03  0.87013762583E+02 -0.58996530179E+03  0.61457950371E+03  0.00000000000E+00 0.  1.
          1    1    3    3  501    0  0.16180777535E+03 -0.70568547485E+02 -0.36872258998E+03  0.40880071480E+03  0.00000000000E+00 0.  1.
         21    1    1    2  502  501 -0.13222735111E+02 -0.16445215097E+02  0.34500868654E+01  0.21381976587E+02  0.00000000000E+00 0.  1.
<mgrwt>
<rscale>  1 0.30000000E+03</rscale>
<asrwt>0</asrwt>
<pdfrwt beam="1">  1        1 0.16277196E+00 0.30000000E+03</pdfrwt>
<pdfrwt beam="2">0</pdfrwt>
<totfact> 0.15504828E+01</totfact>
</mgrwt>
</event>
<event>
 6    1  0.1940992E-004  0.3000000E+03  0.7818608E-02  0.1093470E+00
          1   -1    0    0  502    0  0.00000000000E+00  0.00000000000E+00  0.32278853056E+02  0.32278853056E+02  0.00000000000E+00 0.  1.
         13   -1    0    0    0    0 -0.00000000000E+00 -0.00000000000E+00 -0.10000000000E+04  0.10000000000E+04  0.00000000000E+00 0.  1.
    9000005    2    1    2  501    0  0.72724120814E+01  0.74727377846E+01 -0.96676358851E+03  0.10218076208E+04  0.33068149027E+03 0.  0.
         13    1    3    3    0    0 -0.14070701004E+03 -0.66761321343E+02 -0.34765347201E+03  0.38094418660E+03  0.00000000000E+00 0.  1.
          1    1    3    3  501    0  0.14797942212E+03  0.74234059127E+02 -0.61911011650E+03  0.64086343417E+03  0.00000000000E+00 0.  1.
         21    1    1    2  502  501 -0.72724120814E+01 -0.74727377846E+01 -0.95755843863E+00  0.10471232289E+02  0.00000000000E+00 0. -1.
<mgrwt>
<rscale>  1 0.30000000E+03</rscale>
<asrwt>0</asrwt>
<pdfrwt beam="1">  1        1 0.11737789E+00 0.30000000E+03</pdfrwt>
<pdfrwt beam="2">0</pdfrwt>
<totfact> 0.26904338E+01</totfact>
</mgrwt>
</event>
<event>
 6    1  0.1940992E-004  0.3000000E+03  0.7818608E-02  0.1093470E+00
          1   -1    0    0  502    0  0.00000000000E+00  0.00000000000E+00  0.43032993418E+02  0.43032993418E+02  0.00000000000E+00 0.  1.
         13   -1    0    0    0    0 -0.00000000000E+00 -0.00000000000E+00 -0.10000000000E+04  0.10000000000E+04  0.00000000000E+00 0.  1.
    9000005    2    1    2  501    0 -0.46378334303E+02 -0.10036933769E+02 -0.93791928300E+03  0.99190075597E+03  0.31925356436E+03 0.  0.
         13    1    3    3    0    0 -0.12634925672E+03 -0.10499787055E+03 -0.74191982450E+03  0.75989059310E+03  0.00000000000E+00 0.  1.
          1    1    3    3  501    0  0.79970922416E+02  0.94960936782E+02 -0.19599945850E+03  0.23201016288E+03  0.00000000000E+00 0.  1.
         21    1    1    2  502  501  0.46378334303E+02  0.10036933769E+02 -0.19047723587E+02  0.51132237444E+02  0.00000000000E+00 0.  1.
<mgrwt>
<rscale>  1 0.30000000E+03</rscale>
<asrwt>0</asrwt>
<pdfrwt beam="1">  1        1 0.15648394E+00 0.30000000E+03</pdfrwt>
<pdfrwt beam="2">0</pdfrwt>
<totfact> 0.16662145E+01</totfact>
</mgrwt>
</event>
<event>
 6    1  0.1940992E-004  0.3000000E+03  0.7818608E-02  0.1093470E+00
          1   -1    0    0  502    0  0.00000000000E+00  0.00000000000E+00  0.38190021002E+02  0.38190021002E+02  0.00000000000E+00 0.  1.
         13   -1    0    0    0    0 -0.00000000000E+00 -0.00000000000E+00 -0.10000000000E+04  0.10000000000E+04  0.00000000000E+00 0.  1.
    9000005    2    1    2  501    0 -0.23130974275E+02 -0.25856720160E+02 -0.94418883093E+03  0.99927836712E+03  0.32536301972E+03 0.  0.
         13    1    3    3    0    0  0.11054205472E+03  0.16844227582E+02 -0.75761614193E+03  0.76582340809E+03  0.00000000000E+00 0.  1.
          3    1    3    3  501    0 -0.13367302899E+03 -0.42700947742E+02 -0.18657268900E+03  0.23345495903E+03  0.00000000000E+00 0.  1.
         21    1    1    2  502  501  0.23130974275E+02  0.25856720160E+02 -0.17621148071E+02  0.38911653880E+02  0.00000000000E+00 0.  1.
<mgrwt>
<rscale>  1 0.30000000E+03</rscale>
<asrwt>0</asrwt>
<pdfrwt beam="1">  1        1 0.13887310E+00 0.30000000E+03</pdfrwt>
<pdfrwt beam="2">0</pdfrwt>
<totfact> 0.20509922E+01</totfact>
</mgrwt>
</event>
<event>
 6    1  0.1940992E-004  0.3000000E+03  0.7818608E-02  0.1093470E+00
          1   -1    0    0  502    0  0.00000000000E+00  0.00000000000E+00  0.39452902270E+02  0.39452902270E+02  0.00000000000E+00 0.  1.
         13   -1    0    0    0    0 -0.00000000000E+00 -0.00000000000E+00 -0.10000000000E+04  0.10000000000E+04  0.00000000000E+00 0.  1.
    9000005    2    1    2  501    0 -0.17543986179E+02  0.18186268162E+02 -0.94602339716E+03  0.10103072391E+04  0.35372576623E+03 0.  0.
         13    1    3    3    0    0  0.40814432269E+02  0.17686308062E+03 -0.56547774966E+03  0.59389515281E+03  0.00000000000E+00 0.  1.
          1    1    3    3  501    0 -0.58358418448E+02 -0.15867681246E+03 -0.38054564749E+03  0.41641208633E+03  0.00000000000E+00 0.  1.
         21    1    1    2  502  501  0.17543986179E+02 -0.18186268162E+02 -0.14523700573E+02  0.29145663126E+02  0.00000000000E+00 0. -1.
<mgrwt>
<rscale>  1 0.30000000E+03</rscale>
<asrwt>0</asrwt>
<pdfrwt beam="1">  1        1 0.14346540E+00 0.30000000E+03</pdfrwt>
<pdfrwt beam="2">0</pdfrwt>
<totfact> 0.19407719E+01</totfact>
</mgrwt>
</event>
<event>
 6    1  0.1940992E-004  0.3000000E+03  0.7818608E-02  0.1093470E+00
          1   -1    0    0  502    0  0.00000000000E+00  0.00000000000E+00  0.30015020686E+02  0.30015020686E+02  0.00000000000E+00 0.  1.
         13   -1    0    0    0    0 -0.00000000000E+00 -0.00000000000E+00 -0.10000000000E+04  0.10000000000E+04  0.00000000000E+00 0.  1.
    9000005    2    1    2  501    0  0.27649554764E+01  0.12008229789E+02 -0.95988122055E+03  0.10140798865E+04  0.32685503822E+03 0.  0.
         13    1    3    3    0    0  0.98641774490E+02 -0.62635067517E+02 -0.82215048492E+03  0.83041241032E+03  0.00000000000E+00 0.  1.
          1    1    3    3  501    0 -0.95876819014E+02  0.74643297306E+02 -0.13773073563E+03  0.18366747614E+03  0.00000000000E+00 0.  1.
         21    1    1    2  502  501 -0.27649554764E+01 -0.12008229789E+02 -0.10103758768E+02  0.15935134223E+02  0.00000000000E+00 0. -1.
<mgrwt>
<rscale>  1 0.30000000E+03</rscale>
<asrwt>0</asrwt>
<pdfrwt beam="1">  1        1 0.10914576E+00 0.30000000E+03</pdfrwt>
<pdfrwt beam="2">0</pdfrwt>
<totfact> 0.30060875E+01</totfact>
</mgrwt>
</event>
<event>
 6    1  0.1940992E-004  0.3000000E+03  0.7818608E-02  0.1093470E+00
          1   -1    0    0  502    0  0.00000000000E+00  0.00000000000E+00  0.29639577966E+02  0.29639577966E+02  0.00000000000E+00 0.  1.
         13   -1    0    0    0    0 -0.00000000000E+00 -0.00000000000E+00 -0.10000000000E+04  0.10000000000E+04  0.00000000000E+00 0.  1.
    9000005    2    1    2  501    0  0.10464081635E+02 -0.84005891192E+01 -0.96623252899E+03  0.10156001192E+04  0.31250317614E+03 0.  0.
         13    1    3    3    0    0  0.11242901579E+03 -0.86097610850E+01 -0.12553137181E+03  0.16873807183E+03  0.00000000000E+00 0.  1.
          3    1    3    3  501    0 -0.10196493416E+03  0.20917196580E+00 -0.84070115718E+03  0.84686204735E+03  0.00000000000E+00 0.  1.
         21    1    1    2  502  501 -0.10464081635E+02  0.84005891192E+01 -0.41278930427E+01  0.14039458785E+02  0.00000000000E+00 0. -1.
<mgrwt>
<rscale>  1 0.30000000E+03</rscale>
<asrwt>0</asrwt>
<pdfrwt beam="1">  1        1 0.10778051E+00 0.30000000E+03</pdfrwt>
<pdfrwt beam="2">0</pdfrwt>
<totfact> 0.30634622E+01</totfact>
</mgrwt>
</event>
<event>
 6    1  0.1940992E-004  0.3000000E+03  0.7818608E-02  0.1093470E+00
          1   -1    0    0  502    0  0.00000000000E+00  0.00000000000E+00  0.46310468732E+02  0.46310468732E+02  0.00000000000E+00 0.  1.
         13   -1    0    0    0    0 -0.00000000000E+00 -0.00000000000E+00 -0.10000000000E+04  0.10000000000E+04  0.00000000000E+00 0.  1.
    9000005    2    1    2  501    0 -0.27065220836E+02  0.41605088719E+01 -0.96452438967E+03  0.10168616968E+04  0.32085912186E+03 0.  0.
         13    1    3    3    0    0  0.44346564864E+02 -0.13579156042E+03 -0.27760596490E+03  0.31220351927E+03  0.00000000000E+00 0.  1.
          3    1    3    3  501    0 -0.71411785700E+02  0.13995206929E+03 -0.68691842477E+03  0.70465817751E+03  0.00000000000E+00 0.  1.
         21    1    1    2  502  501  0.27065220836E+02 -0.41605088719E+01  0.10834858407E+02  0.29448771955E+02  0.00000000000E+00 0.  1.
<mgrwt>
<rscale>  1 0.30000000E+03</rscale>
<asrwt>0</asrwt>
<pdfrwt beam="1">  1        1 0.16840206E+00 0.30000000E+03</pdfrwt>
<pdfrwt beam="2">0</pdfrwt>
<totfact> 0.14546739E+01</totfact>
</mgrwt>
</event>
<event>
 6    1  0.1940992E-004  0.3000000E+03  0.7818608E-02  0.1093470E+00
          1   -1    0    0  502    0  0.00000000000E+00  0.00000000000E+00  0.30738144944E+02  0.30738144944E+02  0.00000000000E+00 0.  1.
         13   -1    0    0    0    0 -0.00000000000E+00 -0.00000000000E+00 -0.10000000000E+04  0.10000000000E+04  0.00000000000E+00 0.  1.
    9000005    2    1    2  501    0 -0.21796137093E+02 -0.14931850703E+02 -0.92220949813E+03  0.97677560192E+03  0.32081487856E+03 0.  0.
         13    1    3    3    0    0  0.10529705926E+03  0.99390833149E+02 -0.32959902917E+03  0.36000212282E+03  0.00000000000E+00 0.  1.
          3    1    3    3  501    0 -0.12709319635E+03 -0.11432268385E+03 -0.59261046896E+03  0.61677347910E+03  0.00000000000E+00 0.  1.
         21    1    1    2  502  501  0.21796137093E+02  0.14931850703E+02 -0.47052356926E+02  0.53962543026E+02  0.00000000000E+00 0.  1.
<mgrwt>
<rscale>  1 0.30000000E+03</rscale>
<asrwt>0</asrwt>
<pdfrwt beam="1">  1        1 0.11177531E+00 0.30000000E+03</pdfrwt>
<pdfrwt beam="2">0</pdfrwt>
<totfact> 0.28998081E+01</totfact>
</mgrwt>
</event>
<event>
 6    1  0.1940992E-004  0.3000000E+03  0.7818608E-02  0.1093470E+00
          1   -1    0    0  502    0  0.00000000000E+00  0.00000000000E+00  0.37383665004E+02  0.37383665004E+02  0.00000000000E+00 0.  1.
         13   -1    0    0    0    0 -0.00000000000E+00 -0.00000000000E+00 -0.10000000000E+04  0.10000000000E+04  0.00000000000E+00 0.  1.
    9000005    2    1    2  501    0  0.10481925768E+02  0.10801129257E+02 -0.96731170448E+03  0.10216171925E+04  0.32830354735E+03 0.  0.
         13    1    3    3    0    0 -0.41840901498E+02  0.12584829661E+03 -0.80525730988E+03  0.81610525664E+03  0.00000000000E+00 0.  1.
          3    1    3    3  501    0  0.52322827266E+02 -0.11504716735E+03 -0.16205439460E+03  0.20551193585E+03  0.00000000000E+00 0.  1.
         21    1    1    2  502  501 -0.10481925768E+02 -0.10801129257E+02  0.46953694824E+01  0.15766472517E+02  0.00000000000E+00 0. -1.
<mgrwt>
<rscale>  1 0.30000000E+03</rscale>
<asrwt>0</asrwt>
<pdfrwt beam="1">  1        1 0.13594089E+00 0.30000000E+03</pdfrwt>
<pdfrwt beam="2">0</pdfrwt>
<totfact> 0.21255695E+01</totfact>
</mgrwt>
</event>
<event>
 6    1  0.1940992E-004  0.3000000E+03  0.7818608E-02  0.1093470E+00
          1   -1    0    0  502    0  0.00000000000E+00  0.00000000000E+00  0.32706635499E+02  0.32706635499E+02  0.00000000000E+00 0.  1.
         13   -1    0    0    0    0 -0.00000000000E+00 -0.00000000000E+00 -0.10000000000E+04  0.10000000000E+04  0.00000000000E+00 0.  1.
    9000005    2    1    2  501    0  0.12293963120E+02  0.88310089796E+00 -0.97035941021E+03  0.10200053744E+04  0.31410453276E+03 0.  0.
         13    1    3    3    0    0 -0.60361146404E+02 -0.72042011639E+02 -0.87388073550E+03  0.87892039418E+03  0.00000000000E+00 0.  1.
          1    1    3    3  501    0  0.72655109524E+02  0.72925112537E+02 -0.96478674709E+02  0.14108498025E+03  0.00000000000E+00 0.  1.
         21    1    1    2  502  501 -0.12293963120E+02 -0.88310089796E+00  0.30660457065E+01  0.12701261066E+02  0.00000000000E+00 0.  1.
<mgrwt>
<rscale>  1 0.30000000E+03</rscale>
<asrwt>0</asrwt>
<pdfrwt beam="1">  1        1 0.11893347E+00 0.30000000E+03</pdfrwt>
<pdfrwt beam="2">0</pdfrwt>
<totfact> 0.26360382E+01</totfact>
</mgrwt>
</event>
<event>
 6    1  0.1940992E-004  0.3000000E+03  0.7818608E-02  0.1093470E+00
          1   -1    0    0  502    0  0.00000000000E+00  0.00000000000E+00  0.30658472503E+02  0.30658472503E+02  0.00000000000E+00 0.  1.
         13   -1    0    0    0    0 -0.00000000000E+00 -0.00000000000E+00 -0.10000000000E+04  0.10000000000E+04  0.00000000000E+00 0.  1.
    9000005    2    1    2  501    0  0.13358910655E+02  0.48786205720E+01 -0.95952080672E+03  0.10133753018E+04  0.32564867935E+03 0.  0.
         13    1    3    3    0    0  0.14472214639E+03 -0.21888845470E+02 -0.75344013415E+03  0.76752567185E+03  0.00000000000E+00 0.  1.
          1    1    3    3  501    0 -0.13136323574E+03  0.26767466042E+02 -0.20608067257E+03  0.24584962996E+03  0.00000000000E+00 0.  1.
         21    1    1    2  502  501 -0.13358910655E+02 -0.48786205720E+01 -0.98207207794E+01  0.17283170693E+02  0.00000000000E+00 0. -1.
<mgrwt>
<rscale>  1 0.30000000E+03</rscale>
<asrwt>0</asrwt>
<pdfrwt beam="1">  1        1 0.11148559E+00 0.30000000E+03</pdfrwt>
<pdfrwt beam="2">0</pdfrwt>
<totfact> 0.29112546E+01</totfact>
</mgrwt>
</event>
<event>
 6    1  0.1940992E-004  0.3000000E+03  0.7818608E-02  0.1093470E+00
          1   -1    0    0  502    0  0.00000000000E+00  0.00000000000E+00  0.46214389796E+02  0.46214389796E+02  0.00000000000E+00 0.  1.
         13   -1    0    0    0    0 -0.00000000000E+00 -0.00000000000E+00 -0.10000000000E+04  0.10000000000E+04  0.00000000000E+00 0.  1.
    9000005    2    1    2  501    0 -0.10288760804E+02  0.27206364729E+02 -0.96291285319E+03  0.10157291238E+04  0.32196031607E+03 0.  0.
         13    1    3    3    0    0 -0.13479644555E+03  0.61799831810E+02 -0.76585982879E+03  0.78008369955E+03  0.00000000000E+00 0.  1.
          1    1    3    3  501    0  0.12450768475E+03 -0.34593467081E+02 -0.19705302441E+03  0.23564542421E+03  0.00000000000E+00 0.  1.
         21    1    1    2  502  501  0.10288760804E+02 -0.27206364729E+02  0.91272429910E+01  0.30485266036E+02  0.00000000000E+00 0.  1.
<mgrwt>
<rscale>  1 0.30000000E+03</rscale>
<asrwt>0</asrwt>
<pdfrwt beam="1">  1        1 0.16805268E+00 0.30000000E+03</pdfrwt>
<pdfrwt beam="2">0</pdfrwt>
<totfact> 0.14604194E+01</totfact>
</mgrwt>
</event>
<event>
 6    1  0.1940992E-004  0.3000000E+03  0.7818608E-02  0.1093470E+00
          1   -1    0    0  502    0  0.00000000000E+00  0.00000000000E+00  0.45788069671E+02  0.45788069671E+02  0.00000000000E+00 0.  1.
         13   -1    0    0    0    0 -0.00000000000E+00 -0.00000000000E+00 -0.10000000000E+04  0.10000000000E+04  0.00000000000E+00 0.  1.
    9000005    2    1    2  501    0 -0.20807052692E+02  0.20241632943E+02 -0.96204553345E+03  0.10157211030E+04  0.32452287059E+03 0.  0.
         13    1    3    3    0    0  0.31416566908E+02 -0.14678293189E+03 -0.47782696486E+03  0.50085011542E+03  0.00000000000E+00 0.  1.
          1    1    3    3  501    0 -0.52223619601E+02  0.16702456483E+03 -0.48421856859E+03  0.51487098759E+03  0.00000000000E+00 0.  1.
         21    1    1    2  502  501  0.20807052692E+02 -0.20241632943E+02  0.78336031206E+01  0.30066966654E+02  0.00000000000E+00 0.  1.
<mgrwt>
<rscale>  1 0.30000000E+03</rscale>
<asrwt>0</asrwt>
<pdfrwt beam="1">  1        1 0.16650242E+00 0.30000000E+03</pdfrwt>
<pdfrwt beam="2">0</pdfrwt>
<totfact> 0.14862252E+01</totfact>
</mgrwt>
</event>
<event>
 6    1  0.1940992E-004  0.3000000E+03  0.7818608E-02  0.1093470E+00
          1   -1    0    0  502    0  0.00000000000E+00  0.00000000000E+00  0.72339423630E+02  0.72339423630E+02  0.00000000000E+00 0.  1.
         13   -1    0    0    0    0 -0.00000000000E+00 -0.00000000000E+00 -0.10000000000E+04  0.10000000000E+04  0.00000000000E+00 0.  1.
    9000005    2    1    2  501    0 -0.14173951767E+03  0.72895689550E+02 -0.76816679069E+03  0.84685740640E+03  0.31887830913E+03 0.  0.
         13    1    3    3    0    0 -0.42042235914E+02 -0.16608409060E+02 -0.69053218682E+03  0.69201018048E+03  0.00000000000E+00 0.  1.
          3    1    3    3  501    0 -0.99697281753E+02  0.89504098610E+02 -0.77634603869E+02  0.15484722592E+03  0.00000000000E+00 0.  1.
         21    1    1    2  502  501  0.14173951767E+03 -0.72895689550E+02 -0.15949378568E+03  0.22548201723E+03  0.00000000000E+00 0.  1.
<mgrwt>
<rscale>  1 0.30000000E+03</rscale>
<asrwt>0</asrwt>
<pdfrwt beam="1">  1        1 0.26305300E+00 0.30000000E+03</pdfrwt>
<pdfrwt beam="2">0</pdfrwt>
<totfact> 0.51840307E+00</totfact>
</mgrwt>
</event>
<event>
 6    1  0.1940992E-004  0.3000000E+03  0.7818608E-02  0.1093470E+00
          3   -1    0    0  502    0  0.00000000000E+00  0.00000000000E+00  0.24040911970E+02  0.24040911970E+02  0.00000000000E+00 0.  1.
         13   -1    0    0    0    0 -0.00000000000E+00 -0.00000000000E+00 -0.10000000000E+04  0.10000000000E+04  0.00000000000E+00 0.  1.
    9000005    2    1    2  501    0 -0.40797142639E+02 -0.62349100916E+02 -0.81004624373E+03  0.84216488514E+03  0.21797926403E+03 0.  0.
         13    1    3    3    0    0 -0.16279819632E+02 -0.13823139720E+03 -0.37778805737E+03  0.40261242901E+03  0.00000000000E+00 0.  1.
          3    1    3    3  501    0 -0.24517323007E+02  0.75882296283E+02 -0.43225818636E+03  0.43955245613E+03  0.00000000000E+00 0.  1.
         21    1    1    2  502  501  0.40797142639E+02  0.62349100916E+02 -0.16591284430E+03  0.18187602683E+03  0.00000000000E+00 0.  1.
<mgrwt>
<rscale>  1 0.30000000E+03</rscale>
<asrwt>0</asrwt>
<pdfrwt beam="1">  1        3 0.87421682E-01 0.30000000E+03</pdfrwt>
<pdfrwt beam="2">0</pdfrwt>
<totfact> 0.54687448E+00</totfact>
</mgrwt>
</event>
<event>
 6    1  0.1940992E-004  0.3000000E+03  0.7818608E-02  0.1093470E+00
          1   -1    0    0  502    0  0.00000000000E+00  0.00000000000E+00  0.38664870091E+02  0.38664870091E+02  0.00000000000E+00 0.  1.
         13   -1    0    0    0    0 -0.00000000000E+00 -0.00000000000E+00 -0.10000000000E+04  0.10000000000E+04  0.00000000000E+00 0.  1.
    9000005    2    1    2  501    0 -0.26240333916E+01  0.16698151292E+02 -0.96233974398E+03  0.10217319714E+04  0.34285962838E+03 0.  0.
         13    1    3    3    0    0 -0.13170134171E+02  0.91770997165E+02 -0.48271036978E+02  0.10452493179E+03  0.00000000000E+00 0.  1.
          3    1    3    3  501    0  0.10546100780E+02 -0.75072845873E+02 -0.91406870701E+03  0.91720703964E+03  0.00000000000E+00 0.  1.
         21    1    1    2  502  501  0.26240333916E+01 -0.16698151292E+02  0.10046140749E+01  0.16932898667E+02  0.00000000000E+00 0.  1.
<mgrwt>
<rscale>  1 0.30000000E+03</rscale>
<asrwt>0</asrwt>
<pdfrwt beam="1">  1        1 0.14059982E+00 0.30000000E+03</pdfrwt>
<pdfrwt beam="2">0</pdfrwt>
<totfact> 0.20086378E+01</totfact>
</mgrwt>
</event>
<event>
 6    1  0.1940992E-004  0.3000000E+03  0.7818608E-02  0.1093470E+00
          1   -1    0    0  502    0  0.00000000000E+00  0.00000000000E+00  0.47455754491E+02  0.47455754491E+02  0.00000000000E+00 0.  1.
         13   -1    0    0    0    0 -0.00000000000E+00 -0.00000000000E+00 -0.10000000000E+04  0.10000000000E+04  0.00000000000E+00 0.  1.
    9000005    2    1    2  501    0 -0.26054355955E+02  0.10876207551E+02 -0.96223755680E+03  0.10176047639E+04  0.32988061244E+03 0.  0.
         13    1    3    3    0    0 -0.13603378567E+03 -0.89304371078E+02 -0.32793261618E+03  0.36608777949E+03  0.00000000000E+00 0.  1.
          1    1    3    3  501    0  0.10997942971E+03  0.10018057863E+03 -0.63430494062E+03  0.65151698442E+03  0.00000000000E+00 0.  1.
         21    1    1    2  502  501  0.26054355955E+02 -0.10876207551E+02  0.96933112912E+01  0.29850990581E+02  0.00000000000E+00 0.  1.
<mgrwt>
<rscale>  1 0.30000000E+03</rscale>
<asrwt>0</asrwt>
<pdfrwt beam="1">  1        1 0.17256674E+00 0.30000000E+03</pdfrwt>
<pdfrwt beam="2">0</pdfrwt>
<totfact> 0.13881103E+01</totfact>
</mgrwt>
</event>
<event>
 6    1  0.1940992E-004  0.3000000E+03  0.7818608E-02  0.1093470E+00
          1   -1    0    0  502    0  0.00000000000E+00  0.00000000000E+00  0.41275877985E+02  0.41275877985E+02  0.00000000000E+00 0.  1.
         13   -1    0    0    0    0 -0.00000000000E+00 -0.00000000000E+00 -0.10000000000E+04  0.10000000000E+04  0.00000000000E+00 0.  1.
    9000005    2    1    2  501    0 -0.45196848420E+02  0.19112615999E+02 -0.92582850330E+03  0.98219822631E+03  0.32426361349E+03 0.  0.
         13    1    3    3    0    0 -0.14408796632E+03 -0.96968956611E+02 -0.44162086632E+03  0.47454537207E+03  0.00000000000E+00 0.  1.
          1    1    3    3  501    0  0.98891117902E+02  0.11608157261E+03 -0.48420763699E+03  0.50765285424E+03  0.00000000000E+00 0.  1.
         21    1    1    2  502  501  0.45196848420E+02 -0.19112615999E+02 -0.32895618710E+02  0.59077651678E+02  0.00000000000E+00 0.  1.
<mgrwt>
<rscale>  1 0.30000000E+03</rscale>
<asrwt>0</asrwt>
<pdfrwt beam="1">  1        1 0.15009442E+00 0.30000000E+03</pdfrwt>
<pdfrwt beam="2">0</pdfrwt>
<totfact> 0.17945109E+01</totfact>
</mgrwt>
</event>
<event>
 6    1  0.1940992E-004  0.3000000E+03  0.7818608E-02  0.1093470E+00
          1   -1    0    0  502    0  0.00000000000E+00  0.00000000000E+00  0.28631721436E+02  0.28631721436E+02  0.00000000000E+00 0.  1.
         13   -1    0    0    0    0 -0.00000000000E+00 -0.00000000000E+00 -0.10000000000E+04  0.10000000000E+04  0.00000000000E+00 0.  1.
    9000005    2    1    2  501    0 -0.71559642299E+01  0.11749398005E+02 -0.93186800976E+03  0.98680436899E+03  0.32436957141E+03 0.  0.
         13    1    3    3    0    0  0.81882044136E+02  0.87202683107E+02 -0.13068443870E+03  0.17716489385E+03  0.00000000000E+00 0.  1.
          3    1    3    3  501    0 -0.89038008366E+02 -0.75453285102E+02 -0.80118357106E+03  0.80963947514E+03  0.00000000000E+00 0.  1.
         21    1    1    2  502  501  0.71559642299E+01 -0.11749398005E+02 -0.39500268800E+02  0.41827352448E+02  0.00000000000E+00 0.  1.
<mgrwt>
<rscale>  1 0.30000000E+03</rscale>
<asrwt>0</asrwt>
<pdfrwt beam="1">  1        1 0.10411557E+00 0.30000000E+03</pdfrwt>
<pdfrwt beam="2">0</pdfrwt>
<totfact> 0.32254850E+01</totfact>
</mgrwt>
</event>
<event>
 6    1  0.1940992E-004  0.3000000E+03  0.7818608E-02  0.1093470E+00
          1   -1    0    0  502    0  0.00000000000E+00  0.00000000000E+00  0.61474018405E+02  0.61474018405E+02  0.00000000000E+00 0.  1.
         13   -1    0    0    0    0 -0.00000000000E+00 -0.00000000000E+00 -0.10000000000E+04  0.10000000000E+04  0.00000000000E+00 0.  1.
    9000005    2    1    2  501    0 -0.51244846200E+01  0.26726070451E+02 -0.96580199541E+03  0.10229444958E+04  0.33600804143E+03 0.  0.
         13    1    3    3    0    0 -0.67444299028E+02  0.27402657323E+02 -0.95727650105E+03  0.96004059214E+03  0.00000000000E+00 0.  1.
          3    1    3    3  501    0  0.62319814408E+02 -0.67658687270E+00 -0.85254943631E+01  0.62903903629E+02  0.00000000000E+00 0.  1.
         21    1    1    2  502  501  0.51244846200E+01 -0.26726070451E+02  0.27276013819E+02  0.38529522631E+02  0.00000000000E+00 0.  1.
<mgrwt>
<rscale>  1 0.30000000E+03</rscale>
<asrwt>0</asrwt>
<pdfrwt beam="1">  1        1 0.22354236E+00 0.30000000E+03</pdfrwt>
<pdfrwt beam="2">0</pdfrwt>
<totfact> 0.79341506E+00</totfact>
</mgrwt>
</event>
<event>
 6    1  0.1940992E-004  0.3000000E+03  0.7818608E-02  0.1093470E+00
          1   -1    0    0  502    0  0.00000000000E+00  0.00000000000E+00  0.35811735363E+02  0.35811735363E+02  0.00000000000E+00 0.  1.
         13   -1    0    0    0    0 -0.00000000000E+00 -0.00000000000E+00 -0.10000000000E+04  0.10000000000E+04  0.00000000000E+00 0.  1.
    9000005    2    1    2  501    0 -0.17477604775E+02  0.30687639397E+02 -0.90584915180E+03  0.96761606125E+03  0.33833557055E+03 0.  0.
         13    1    3    3    0    0  0.44856257621E+02  0.15617647853E+03 -0.69994824208E+03  0.71856156166E+03  0.00000000000E+00 0.  1.
          3    1    3    3  501    0 -0.62333862397E+02 -0.12548883913E+03 -0.20590090971E+03  0.24905449959E+03  0.00000000000E+00 0.  1.
         21    1    1    2  502  501  0.17477604775E+02 -0.30687639397E+02 -0.58339112841E+02  0.68195674112E+02  0.00000000000E+00 0.  1.
<mgrwt>
<rscale>  1 0.30000000E+03</rscale>
<asrwt>0</asrwt>
<pdfrwt beam="1">  1        1 0.13022477E+00 0.30000000E+03</pdfrwt>
<pdfrwt beam="2">0</pdfrwt>
<totfact> 0.22815423E+01</totfact>
</mgrwt>
</event>
<event>
 6    1  0.1940992E-004  0.3000000E+03  0.7818608E-02  0.1093470E+00
          1   -1    0    0  502    0  0.00000000000E+00  0.00000000000E+00  0.34824582594E+02  0.34824582594E+02  0.00000000000E+00 0.  1.
         13   -1    0    0    0    0 -0.00000000000E+00 -0.00000000000E+00 -0.10000000000E+04  0.10000000000E+04  0.00000000000E+00 0.  1.
    9000005    2    1    2  501    0 -0.16539095094E+02 -0.18256464796E+02 -0.93631978185E+03  0.99688399909E+03  0.34128599969E+03 0.  0.
         13    1    3    3    0    0 -0.77300207799E+02 -0.80552232550E+02 -0.82940993251E+02  0.13907980679E+03  0.00000000000E+00 0.  1.
          1    1    3    3  501    0  0.60761112705E+02  0.62295767754E+02 -0.85337878860E+03  0.85780419230E+03  0.00000000000E+00 0.  1.
         21    1    1    2  502  501  0.16539095094E+02  0.18256464796E+02 -0.28855635556E+02  0.37940583505E+02  0.00000000000E+00 0.  1.
<mgrwt>
<rscale>  1 0.30000000E+03</rscale>
<asrwt>0</asrwt>
<pdfrwt beam="1">  1        1 0.12663511E+00 0.30000000E+03</pdfrwt>
<pdfrwt beam="2">0</pdfrwt>
<totfact> 0.23871912E+01</totfact>
</mgrwt>
</event>
<event>
 6    1  0.1940992E-004  0.3000000E+03  0.7818608E-02  0.1093470E+00
          1   -1    0    0  502    0  0.00000000000E+00  0.00000000000E+00  0.39203039758E+02  0.39203039758E+02  0.00000000000E+00 0.  1.
         13   -1    0    0    0    0 -0.00000000000E+00 -0.00000000000E+00 -0.10000000000E+04  0.10000000000E+04  0.00000000000E+00 0.  1.
    9000005    2    1    2  501    0 -0.15410639040E+02 -0.75527167557E+01 -0.96823425042E+03  0.10204989062E+04  0.32194086818E+03 0.  0.
         13    1    3    3    0    0 -0.42321057667E+02  0.15224332368E+03 -0.41680547763E+03  0.44575319147E+03  0.00000000000E+00 0.  1.
          1    1    3    3  501    0  0.26910418627E+02 -0.15979604043E+03 -0.55142877279E+03  0.57474571476E+03  0.00000000000E+00 0.  1.
         21    1    1    2  502  501  0.15410639040E+02  0.75527167557E+01  0.74372901755E+01  0.18704133532E+02  0.00000000000E+00 0.  1.
<mgrwt>
<rscale>  1 0.30000000E+03</rscale>
<asrwt>0</asrwt>
<pdfrwt beam="1">  1        1 0.14255681E+00 0.30000000E+03</pdfrwt>
<pdfrwt beam="2">0</pdfrwt>
<totfact> 0.19619712E+01</totfact>
</mgrwt>
</event>
<event>
 6    1  0.1940992E-004  0.3000000E+03  0.7818608E-02  0.1093470E+00
          1   -1    0    0  502    0  0.00000000000E+00  0.00000000000E+00  0.32853470611E+02  0.32853470611E+02  0.00000000000E+00 0.  1.
         13   -1    0    0    0    0 -0.00000000000E+00 -0.00000000000E+00 -0.10000000000E+04  0.10000000000E+04  0.00000000000E+00 0.  1.
    9000005    2    1    2  501    0  0.81276839318E+00 -0.23334977984E+02 -0.88828860640E+03  0.95061142657E+03  0.33772807741E+03 0.  0.
         13    1    3    3    0    0 -0.39565706270E+02 -0.12770302419E+03 -0.79132915627E+03  0.80254304624E+03  0.00000000000E+00 0.  1.
          1    1    3    3  501    0  0.40378474663E+02  0.10436804621E+03 -0.96959450131E+02  0.14806838033E+03  0.00000000000E+00 0.  1.
         21    1    1    2  502  501 -0.81276839318E+00  0.23334977984E+02 -0.78857922989E+02  0.82242044041E+02  0.00000000000E+00 0.  1.
<mgrwt>
<rscale>  1 0.30000000E+03</rscale>
<asrwt>0</asrwt>
<pdfrwt beam="1">  1        1 0.11946742E+00 0.30000000E+03</pdfrwt>
<pdfrwt beam="2">0</pdfrwt>
<totfact> 0.26177115E+01</totfact>
</mgrwt>
</event>
<event>
 6    1  0.1940992E-004  0.3000000E+03  0.7818608E-02  0.1093470E+00
          1   -1    0    0  502    0  0.00000000000E+00  0.00000000000E+00  0.31771684093E+02  0.31771684093E+02  0.00000000000E+00 0.  1.
         13   -1    0    0    0    0 -0.00000000000E+00 -0.00000000000E+00 -0.10000000000E+04  0.10000000000E+04  0.00000000000E+00 0.  1.
    9000005    2    1    2  501    0  0.52303682570E+01  0.98331174783E+01 -0.95528949625E+03  0.10146994843E+04  0.34192539370E+03 0.  0.
         13    1    3    3    0    0  0.94065440496E+02  0.11614761582E+03 -0.21679888208E+03  0.26332552293E+03  0.00000000000E+00 0.  1.
          3    1    3    3  501    0 -0.88835072239E+02 -0.10631449834E+03 -0.73849061416E+03  0.75137396137E+03  0.00000000000E+00 0.  1.
         21    1    1    2  502  501 -0.52303682570E+01 -0.98331174783E+01 -0.12938819661E+02  0.17072199790E+02  0.00000000000E+00 0. -1.
<mgrwt>
<rscale>  1 0.30000000E+03</rscale>
<asrwt>0</asrwt>
<pdfrwt beam="1">  1        1 0.11553364E+00 0.30000000E+03</pdfrwt>
<pdfrwt beam="2">0</pdfrwt>
<totfact> 0.27569423E+01</totfact>
</mgrwt>
</event>
<event>
 6    1  0.1940992E-004  0.3000000E+03  0.7818608E-02  0.1093470E+00
          1   -1    0    0  502    0  0.00000000000E+00  0.00000000000E+00  0.30857970307E+02  0.30857970307E+02  0.00000000000E+00 0.  1.
         13   -1    0    0    0    0 -0.00000000000E+00 -0.00000000000E+00 -0.10000000000E+04  0.10000000000E+04  0.00000000000E+00 0.  1.
    9000005    2    1    2  501    0  0.11260527042E+02 -0.25322831781E+01 -0.96830005076E+03  0.10192855524E+04  0.31812707702E+03 0.  0.
         13    1    3    3    0    0 -0.13367506559E+03  0.45500381804E+02 -0.27231415509E+03  0.30674795348E+03  0.00000000000E+00 0.  1.
          3    1    3    3  501    0  0.14493559263E+03 -0.48032664982E+02 -0.69598589567E+03  0.71253759893E+03  0.00000000000E+00 0.  1.
         21    1    1    2  502  501 -0.11260527042E+02  0.25322831781E+01 -0.84197893441E+00  0.11572417893E+02  0.00000000000E+00 0.  1.
<mgrwt>
<rscale>  1 0.30000000E+03</rscale>
<asrwt>0</asrwt>
<pdfrwt beam="1">  1        1 0.11221104E+00 0.30000000E+03</pdfrwt>
<pdfrwt beam="2">0</pdfrwt>
<totfact> 0.28827121E+01</totfact>
</mgrwt>
</event>
<event>
 6    1  0.1940992E-004  0.3000000E+03  0.7818608E-02  0.1093470E+00
          1   -1    0    0  502    0  0.00000000000E+00  0.00000000000E+00  0.32853793546E+02  0.32853793546E+02  0.00000000000E+00 0.  1.
         13   -1    0    0    0    0 -0.00000000000E+00 -0.00000000000E+00 -0.10000000000E+04  0.10000000000E+04  0.00000000000E+00 0.  1.
    9000005    2    1    2  501    0 -0.98153015886E+01  0.40081978759E+01 -0.97344980955E+03  0.10205192402E+04  0.30617410409E+03 0.  0.
         13    1    3    3    0    0 -0.13888448485E+03 -0.72051417289E+02 -0.48542365393E+03  0.51001610824E+03  0.00000000000E+00 0.  1.
          3    1    3    3  501    0  0.12906918327E+03  0.76059615165E+02 -0.48802615561E+03  0.51050313191E+03  0.00000000000E+00 0.  1.
         21    1    1    2  502  501  0.98153015886E+01 -0.40081978759E+01  0.63036030927E+01  0.12334553394E+02  0.00000000000E+00 0.  1.
<mgrwt>
<rscale>  1 0.30000000E+03</rscale>
<asrwt>0</asrwt>
<pdfrwt beam="1">  1        1 0.11946859E+00 0.30000000E+03</pdfrwt>
<pdfrwt beam="2">0</pdfrwt>
<totfact> 0.26176713E+01</totfact>
</mgrwt>
</event>
<event>
 6    1  0.1940992E-004  0.3000000E+03  0.7818608E-02  0.1093470E+00
          1   -1    0    0  502    0  0.00000000000E+00  0.00000000000E+00  0.32226188734E+02  0.32226188734E+02  0.00000000000E+00 0.  1.
         13   -1    0    0    0    0 -0.00000000000E+00 -0.00000000000E+00 -0.10000000000E+04  0.10000000000E+04  0.00000000000E+00 0.  1.
    9000005    2    1    2  501    0 -0.91507280484E+01  0.84749772568E+01 -0.94934470500E+03  0.10099732559E+04  0.34443438794E+03 0.  0.
         13    1    3    3    0    0 -0.16826719633E+03  0.16469333310E+00 -0.64322119738E+03  0.66486644166E+03  0.00000000000E+00 0.  1.
          1    1    3    3  501    0  0.15911646828E+03  0.83102839237E+01 -0.30612350762E+03  0.34510681421E+03  0.00000000000E+00 0.  1.
         21    1    1    2  502  501  0.91507280484E+01 -0.84749772568E+01 -0.18429106270E+02  0.22252932868E+02  0.00000000000E+00 0. -1.
<mgrwt>
<rscale>  1 0.30000000E+03</rscale>
<asrwt>0</asrwt>
<pdfrwt beam="1">  1        1 0.11718639E+00 0.30000000E+03</pdfrwt>
<pdfrwt beam="2">0</pdfrwt>
<totfact> 0.26972362E+01</totfact>
</mgrwt>
</event>
<event>
 6    1  0.1940992E-004  0.3000000E+03  0.7818608E-02  0.1093470E+00
          1   -1    0    0  502    0  0.00000000000E+00  0.00000000000E+00  0.45513878069E+02  0.45513878069E+02  0.00000000000E+00 0.  1.
         13   -1    0    0    0    0 -0.00000000000E+00 -0.00000000000E+00 -0.10000000000E+04  0.10000000000E+04  0.00000000000E+00 0.  1.
    9000005    2    1    2  501    0 -0.16972465795E+02  0.21844731996E+01 -0.97129970189E+03  0.10215236094E+04  0.31590273376E+03 0.  0.
         13    1    3    3    0    0  0.23732729027E+02 -0.13016934592E+03 -0.74162129469E+03  0.75333222803E+03  0.00000000000E+00 0.  1.
          3    1    3    3  501    0 -0.40705194822E+02  0.13235381912E+03 -0.22967840720E+03  0.26819138140E+03  0.00000000000E+00 0.  1.
         21    1    1    2  502  501  0.16972465795E+02 -0.21844731996E+01  0.16813579963E+02  0.23990268642E+02  0.00000000000E+00 0. -1.
<mgrwt>
<rscale>  1 0.30000000E+03</rscale>
<asrwt>0</asrwt>
<pdfrwt beam="1">  1        1 0.16550536E+00 0.30000000E+03</pdfrwt>
<pdfrwt beam="2">0</pdfrwt>
<totfact> 0.15030964E+01</totfact>
</mgrwt>
</event>
<event>
 6    1  0.1940992E-004  0.3000000E+03  0.7818608E-02  0.1093470E+00
          3   -1    0    0  502    0  0.00000000000E+00  0.00000000000E+00  0.32876053353E+02  0.32876053353E+02  0.00000000000E+00 0.  1.
         13   -1    0    0    0    0 -0.00000000000E+00 -0.00000000000E+00 -0.10000000000E+04  0.10000000000E+04  0.00000000000E+00 0.  1.
    9000005    2    1    2  501    0  0.37218881341E+02 -0.39356563601E+01 -0.89864221988E+03  0.95483451685E+03  0.32054700231E+03 0.  0.
         13    1    3    3    0    0 -0.62125633483E+02  0.13681991864E+03 -0.43447101529E+03  0.45972203297E+03  0.00000000000E+00 0.  1.
          1    1    3    3  501    0  0.99344514824E+02 -0.14075557500E+03 -0.46417120459E+03  0.49511248388E+03  0.00000000000E+00 0.  1.
         21    1    1    2  502  501 -0.37218881341E+02  0.39356563601E+01 -0.68481726768E+02  0.78041536507E+02  0.00000000000E+00 0.  1.
<mgrwt>
<rscale>  1 0.30000000E+03</rscale>
<asrwt>0</asrwt>
<pdfrwt beam="1">  1        3 0.11954954E+00 0.30000000E+03</pdfrwt>
<pdfrwt beam="2">0</pdfrwt>
<totfact> 0.23409590E+00</totfact>
</mgrwt>
</event>
<event>
 6    1  0.1940992E-004  0.3000000E+03  0.7818608E-02  0.1093470E+00
          1   -1    0    0  502    0  0.00000000000E+00  0.00000000000E+00  0.29202895128E+02  0.29202895128E+02  0.00000000000E+00 0.  1.
         13   -1    0    0    0    0 -0.00000000000E+00 -0.00000000000E+00 -0.10000000000E+04  0.10000000000E+04  0.00000000000E+00 0.  1.
    9000005    2    1    2  501    0 -0.13871847699E+02  0.37070024197E+01 -0.94609352363E+03  0.10006295343E+04  0.32551549785E+03 0.  0.
         13    1    3    3    0    0 -0.83940145477E+02 -0.62517747178E+02 -0.87399780190E+03  0.88024233849E+03  0.00000000000E+00 0.  1.
          3    1    3    3  501    0  0.70068297778E+02  0.66224749597E+02 -0.72095721727E+02  0.12038719577E+03  0.00000000000E+00 0.  1.
         21    1    1    2  502  501  0.13871847699E+02 -0.37070024197E+01 -0.24703581241E+02  0.28573360874E+02  0.00000000000E+00 0.  1.
<mgrwt>
<rscale>  1 0.30000000E+03</rscale>
<asrwt>0</asrwt>
<pdfrwt beam="1">  1        1 0.10619257E+00 0.30000000E+03</pdfrwt>
<pdfrwt beam="2">0</pdfrwt>
<totfact> 0.31321889E+01</totfact>
</mgrwt>
</event>
<event>
 6    1  0.1940992E-004  0.3000000E+03  0.7818608E-02  0.1093470E+00
          1   -1    0    0  502    0  0.00000000000E+00  0.00000000000E+00  0.35007552563E+02  0.35007552563E+02  0.00000000000E+00 0.  1.
         13   -1    0    0    0    0 -0.00000000000E+00 -0.00000000000E+00 -0.10000000000E+04  0.10000000000E+04  0.00000000000E+00 0.  1.
    9000005    2    1    2  501    0  0.23628379521E+02 -0.24056519785E+01 -0.95729626632E+03  0.10100412015E+04  0.32125223701E+03 0.  0.
         13    1    3    3    0    0  0.70796372191E+02  0.14823647555E+03 -0.48746166500E+03  0.51439775839E+03  0.00000000000E+00 0.  1.
          3    1    3    3  501    0 -0.47167992670E+02 -0.15064212753E+03 -0.46983460133E+03  0.49564344314E+03  0.00000000000E+00 0.  1.
         21    1    1    2  502  501 -0.23628379521E+02  0.24056519785E+01 -0.76961811132E+01  0.24966351034E+02  0.00000000000E+00 0.  1.
<mgrwt>
<rscale>  1 0.30000000E+03</rscale>
<asrwt>0</asrwt>
<pdfrwt beam="1">  1        1 0.12730046E+00 0.30000000E+03</pdfrwt>
<pdfrwt beam="2">0</pdfrwt>
<totfact> 0.23671408E+01</totfact>
</mgrwt>
</event>
<event>
 6    1  0.1940992E-004  0.3000000E+03  0.7818608E-02  0.1093470E+00
          1   -1    0    0  502    0  0.00000000000E+00  0.00000000000E+00  0.47244183853E+02  0.47244183853E+02  0.00000000000E+00 0.  1.
         13   -1    0    0    0    0 -0.00000000000E+00 -0.00000000000E+00 -0.10000000000E+04  0.10000000000E+04  0.00000000000E+00 0.  1.
    9000005    2    1    2  501    0 -0.15119511483E+02  0.32931884007E+02 -0.96031402082E+03  0.10102274975E+04  0.31151800829E+03 0.  0.
         13    1    3    3    0    0  0.66616815892E+02 -0.74629579530E+02 -0.77207543053E+03  0.77852928316E+03  0.00000000000E+00 0.  1.
          1    1    3    3  501    0 -0.81736327376E+02  0.10756146354E+03 -0.18823859028E+03  0.23169821433E+03  0.00000000000E+00 0.  1.
         21    1    1    2  502  501  0.15119511483E+02 -0.32931884007E+02  0.75582046689E+01  0.37016686367E+02  0.00000000000E+00 0.  1.
<mgrwt>
<rscale>  1 0.30000000E+03</rscale>
<asrwt>0</asrwt>
<pdfrwt beam="1">  1        1 0.17179739E+00 0.30000000E+03</pdfrwt>
<pdfrwt beam="2">0</pdfrwt>
<totfact> 0.14001452E+01</totfact>
</mgrwt>
</event>
<event>
 6    1  0.1940992E-004  0.3000000E+03  0.7818608E-02  0.1093470E+00
          1   -1    0    0  502    0  0.00000000000E+00  0.00000000000E+00  0.35940272607E+02  0.35940272607E+02  0.00000000000E+00 0.  1.
         13   -1    0    0    0    0 -0.00000000000E+00 -0.00000000000E+00 -0.10000000000E+04  0.10000000000E+04  0.00000000000E+00 0.  1.
    9000005    2    1    2  501    0 -0.12016920167E+02  0.94763144775E+00 -0.97128793956E+03  0.10218849737E+04  0.31733788556E+03 0.  0.
         13    1    3    3    0    0  0.27851280873E+02 -0.44539040903E+02 -0.39723474949E+01  0.52680162827E+02  0.00000000000E+00 0.  1.
          3    1    3    3  501    0 -0.39868201041E+02  0.45486672351E+02 -0.96731559206E+03  0.96920481090E+03  0.00000000000E+00 0.  1.
         21    1    1    2  502  501  0.12016920167E+02 -0.94763144775E+00  0.72282121640E+01  0.14055298885E+02  0.00000000000E+00 0. -1.
<mgrwt>
<rscale>  1 0.30000000E+03</rscale>
<asrwt>0</asrwt>
<pdfrwt beam="1">  1        1 0.13069218E+00 0.30000000E+03</pdfrwt>
<pdfrwt beam="2">0</pdfrwt>
<totfact> 0.22682345E+01</totfact>
</mgrwt>
</event>
<event>
 6    1  0.1940992E-004  0.3000000E+03  0.7818608E-02  0.1093470E+00
          3   -1    0    0  502    0  0.00000000000E+00  0.00000000000E+00  0.20345438257E+02  0.20345438257E+02  0.00000000000E+00 0.  1.
         13   -1    0    0    0    0 -0.00000000000E+00 -0.00000000000E+00 -0.10000000000E+04  0.10000000000E+04  0.00000000000E+00 0.  1.
    9000005    2    1    2  501    0  0.16381544227E+02  0.26823127363E+02 -0.83650624593E+03  0.87378734236E+03  0.25054697172E+03 0.  0.
         13    1    3    3    0    0 -0.72837883926E+02  0.11225288727E+02 -0.73113316491E+03  0.73483812453E+03  0.00000000000E+00 0.  1.
          3    1    3    3  501    0  0.89219428153E+02  0.15597838635E+02 -0.10537308102E+03  0.13894921782E+03  0.00000000000E+00 0.  1.
         21    1    1    2  502  501 -0.16381544227E+02 -0.26823127363E+02 -0.14314831582E+03  0.14655809590E+03  0.00000000000E+00 0.  1.
<mgrwt>
<rscale>  1 0.30000000E+03</rscale>
<asrwt>0</asrwt>
<pdfrwt beam="1">  1        3 0.73983568E-01 0.30000000E+03</pdfrwt>
<pdfrwt beam="2">0</pdfrwt>
<totfact> 0.79363595E+00</totfact>
</mgrwt>
</event>
<event>
 6    1  0.1940992E-004  0.3000000E+03  0.7818608E-02  0.1093470E+00
          3   -1    0    0  502    0  0.00000000000E+00  0.00000000000E+00  0.29770177869E+02  0.29770177869E+02  0.00000000000E+00 0.  1.
         13   -1    0    0    0    0 -0.00000000000E+00 -0.00000000000E+00 -0.10000000000E+04  0.10000000000E+04  0.00000000000E+00 0.  1.
    9000005    2    1    2  501    0  0.89483364305E+01 -0.12869812357E+02 -0.97538674583E+03  0.10132687035E+04  0.27402273028E+03 0.  0.
         13    1    3    3    0    0 -0.63476919658E+02  0.88265173088E+02 -0.73104559142E+03  0.73908573038E+03  0.00000000000E+00 0.  1.
          1    1    3    3  501    0  0.72425256089E+02 -0.10113498545E+03 -0.24434115441E+03  0.27418297310E+03  0.00000000000E+00 0.  1.
         21    1    1    2  502  501 -0.89483364305E+01  0.12869812357E+02  0.51569237013E+01  0.16501474390E+02  0.00000000000E+00 0. -1.
<mgrwt>
<rscale>  1 0.30000000E+03</rscale>
<asrwt>0</asrwt>
<pdfrwt beam="1">  1        3 0.10825542E+00 0.30000000E+03</pdfrwt>
<pdfrwt beam="2">0</pdfrwt>
<totfact> 0.31547546E+00</totfact>
</mgrwt>
</event>
<event>
 6    1  0.1940992E-004  0.3000000E+03  0.7818608E-02  0.1093470E+00
          1   -1    0    0  502    0  0.00000000000E+00  0.00000000000E+00  0.30548177336E+02  0.30548177336E+02  0.00000000000E+00 0.  1.
         13   -1    0    0    0    0 -0.00000000000E+00 -0.00000000000E+00 -0.10000000000E+04  0.10000000000E+04  0.00000000000E+00 0.  1.
    9000005    2    1    2  501    0 -0.14282587480E+02  0.17346466056E+02 -0.91221783942E+03  0.96906142243E+03  0.32624187609E+03 0.  0.
         13    1    3    3    0    0 -0.10254719672E+03  0.10107943980E+03 -0.76330659130E+03  0.77676890581E+03  0.00000000000E+00 0.  1.
          3    1    3    3  501    0  0.88264609240E+02 -0.83732973741E+02 -0.14891124811E+03  0.19229251663E+03  0.00000000000E+00 0.  1.
         21    1    1    2  502  501  0.14282587480E+02 -0.17346466056E+02 -0.57233983249E+02  0.61486754901E+02  0.00000000000E+00 0.  1.
<mgrwt>
<rscale>  1 0.30000000E+03</rscale>
<asrwt>0</asrwt>
<pdfrwt beam="1">  1        1 0.11108452E+00 0.30000000E+03</pdfrwt>
<pdfrwt beam="2">0</pdfrwt>
<totfact> 0.29272062E+01</totfact>
</mgrwt>
</event>
<event>
 6    1  0.1940992E-004  0.3000000E+03  0.7818608E-02  0.1093470E+00
          1   -1    0    0  502    0  0.00000000000E+00  0.00000000000E+00  0.67313523156E+02  0.67313523156E+02  0.00000000000E+00 0.  1.
         13   -1    0    0    0    0 -0.00000000000E+00 -0.00000000000E+00 -0.10000000000E+04  0.10000000000E+04  0.00000000000E+00 0.  1.
    9000005    2    1    2  501    0  0.90371013062E+00 -0.75911405720E+02 -0.93339980128E+03  0.99139338721E+03  0.32536487357E+03 0.  0.
         13    1    3    3    0    0 -0.93973085991E+02 -0.13071029986E+03 -0.23748472449E+03  0.28690611313E+03  0.00000000000E+00 0.  1.
          1    1    3    3  501    0  0.94876796122E+02  0.54798894145E+02 -0.69591507679E+03  0.70448727408E+03  0.00000000000E+00 0.  1.
         21    1    1    2  502  501 -0.90371013062E+00  0.75911405720E+02  0.71332443937E+00  0.75920135946E+02  0.00000000000E+00 0.  1.
<mgrwt>
<rscale>  1 0.30000000E+03</rscale>
<asrwt>0</asrwt>
<pdfrwt beam="1">  1        1 0.24477696E+00 0.30000000E+03</pdfrwt>
<pdfrwt beam="2">0</pdfrwt>
<totfact> 0.63102625E+00</totfact>
</mgrwt>
</event>
<event>
 6    1  0.1940992E-004  0.3000000E+03  0.7818608E-02  0.1093470E+00
          1   -1    0    0  502    0  0.00000000000E+00  0.00000000000E+00  0.39529622595E+02  0.39529622595E+02  0.00000000000E+00 0.  1.
         13   -1    0    0    0    0 -0.00000000000E+00 -0.00000000000E+00 -0.10000000000E+04  0.10000000000E+04  0.00000000000E+00 0.  1.
    9000005    2    1    2  501    0  0.57775966474E+02 -0.16104476608E+01 -0.90073317922E+03  0.95640809295E+03  0.31631554541E+03 0.  0.
         13    1    3    3    0    0 -0.10600863082E+03 -0.52314834933E+02 -0.17844796862E+03  0.21405221155E+03  0.00000000000E+00 0.  1.
          3    1    3    3  501    0  0.16378459730E+03  0.50704387272E+02 -0.72228521060E+03  0.74235588140E+03  0.00000000000E+00 0.  1.
         21    1    1    2  502  501 -0.57775966474E+02  0.16104476608E+01 -0.59737198186E+02  0.83121529647E+02  0.00000000000E+00 0.  1.
<mgrwt>
<rscale>  1 0.30000000E+03</rscale>
<asrwt>0</asrwt>
<pdfrwt beam="1">  1        1 0.14374439E+00 0.30000000E+03</pdfrwt>
<pdfrwt beam="2">0</pdfrwt>
<totfact> 0.19343208E+01</totfact>
</mgrwt>
</event>
<event>
 6    1  0.1940992E-004  0.3000000E+03  0.7818608E-02  0.1093470E+00
          1   -1    0    0  502    0  0.00000000000E+00  0.00000000000E+00  0.40608403927E+02  0.40608403927E+02  0.00000000000E+00 0.  1.
         13   -1    0    0    0    0 -0.00000000000E+00 -0.00000000000E+00 -0.10000000000E+04  0.10000000000E+04  0.00000000000E+00 0.  1.
    9000005    2    1    2  501    0  0.19775919035E+02 -0.32875889240E+02 -0.94337497891E+03  0.99903385532E+03  0.32655839013E+03 0.  0.
         13    1    3    3    0    0 -0.32179598132E+02 -0.10585552502E+03 -0.94669070486E+02  0.14561302009E+03  0.00000000000E+00 0.  1.
          1    1    3    3  501    0  0.51955517167E+02  0.72979635778E+02 -0.84870590843E+03  0.85342083523E+03  0.00000000000E+00 0.  1.
         21    1    1    2  502  501 -0.19775919035E+02  0.32875889240E+02 -0.16016617162E+02  0.41574548612E+02  0.00000000000E+00 0.  1.
<mgrwt>
<rscale>  1 0.30000000E+03</rscale>
<asrwt>0</asrwt>
<pdfrwt beam="1">  1        1 0.14766723E+00 0.30000000E+03</pdfrwt>
<pdfrwt beam="2">0</pdfrwt>
<totfact> 0.18464067E+01</totfact>
</mgrwt>
</event>
<event>
 6    1  0.1940992E-004  0.3000000E+03  0.7818608E-02  0.1093470E+00
          1   -1    0    0  502    0  0.00000000000E+00  0.00000000000E+00  0.33383358181E+02  0.33383358181E+02  0.00000000000E+00 0.  1.
         13   -1    0    0    0    0 -0.00000000000E+00 -0.00000000000E+00 -0.10000000000E+04  0.10000000000E+04  0.00000000000E+00 0.  1.
    9000005    2    1    2  501    0 -0.13952928799E+02  0.26027340832E+01 -0.96499040771E+03  0.10190968931E+04  0.32733855888E+03 0.  0.
         13    1    3    3    0    0  0.19667953019E+02  0.15769560851E+03 -0.60794627202E+03  0.62837361735E+03  0.00000000000E+00 0.  1.
          1    1    3    3  501    0 -0.33620881818E+02 -0.15509287442E+03 -0.35704413569E+03  0.39072327576E+03  0.00000000000E+00 0.  1.
         21    1    1    2  502  501  0.13952928799E+02 -0.26027340832E+01 -0.16262341064E+01  0.14286465068E+02  0.00000000000E+00 0.  1.
<mgrwt>
<rscale>  1 0.30000000E+03</rscale>
<asrwt>0</asrwt>
<pdfrwt beam="1">  1        1 0.12139429E+00 0.30000000E+03</pdfrwt>
<pdfrwt beam="2">0</pdfrwt>
<totfact> 0.25529786E+01</totfact>
</mgrwt>
</event>
<event>
 6    1  0.1940992E-004  0.3000000E+03  0.7818608E-02  0.1093470E+00
          1   -1    0    0  502    0  0.00000000000E+00  0.00000000000E+00  0.33041735583E+02  0.33041735583E+02  0.00000000000E+00 0.  1.
         13   -1    0    0    0    0 -0.00000000000E+00 -0.00000000000E+00 -0.10000000000E+04  0.10000000000E+04  0.00000000000E+00 0.  1.
    9000005    2    1    2  501    0  0.16872772703E+02  0.41533583789E+01 -0.96168097006E+03  0.10148815957E+04  0.32380924059E+03 0.  0.
         13    1    3    3    0    0  0.21528852114E+02 -0.13719143671E+03 -0.22240384317E+03  0.26219925866E+03  0.00000000000E+00 0.  1.
          1    1    3    3  501    0 -0.46560794102E+01  0.14134479509E+03 -0.73927712688E+03  0.75268233705E+03  0.00000000000E+00 0.  1.
         21    1    1    2  502  501 -0.16872772703E+02 -0.41533583789E+01 -0.52772943594E+01  0.18160139875E+02  0.00000000000E+00 0.  1.
<mgrwt>
<rscale>  1 0.30000000E+03</rscale>
<asrwt>0</asrwt>
<pdfrwt beam="1">  1        1 0.12015202E+00 0.30000000E+03</pdfrwt>
<pdfrwt beam="2">0</pdfrwt>
<totfact> 0.25944638E+01</totfact>
</mgrwt>
</event>
<event>
 6    1  0.1940992E-004  0.3000000E+03  0.7818608E-02  0.1093470E+00
          1   -1    0    0  502    0  0.00000000000E+00  0.00000000000E+00  0.30027058754E+02  0.30027058754E+02  0.00000000000E+00 0.  1.
         13   -1    0    0    0    0 -0.00000000000E+00 -0.00000000000E+00 -0.10000000000E+04  0.10000000000E+04  0.00000000000E+00 0.  1.
    9000005    2    1    2  501    0  0.74335516380E+01  0.74993876477E+01 -0.96677052782E+03  0.10189928412E+04  0.32185347360E+03 0.  0.
         13    1    3    3    0    0 -0.24556260356E+02 -0.45009330256E+02 -0.10153530354E+01  0.51282362217E+02  0.00000000000E+00 0.  1.
          3    1    3    3  501    0  0.31989811994E+02  0.52508717903E+02 -0.96575517479E+03  0.96771047899E+03  0.00000000000E+00 0.  1.
         21    1    1    2  502  501 -0.74335516380E+01 -0.74993876477E+01 -0.32024134233E+01  0.11034217543E+02  0.00000000000E+00 0. -1.
<mgrwt>
<rscale>  1 0.30000000E+03</rscale>
<asrwt>0</asrwt>
<pdfrwt beam="1">  1        1 0.10918953E+00 0.30000000E+03</pdfrwt>
<pdfrwt beam="2">0</pdfrwt>
<totfact> 0.30042733E+01</totfact>
</mgrwt>
</event>
<event>
 6    1  0.1940992E-004  0.3000000E+03  0.7818608E-02  0.1093470E+00
          1   -1    0    0  502    0  0.00000000000E+00  0.00000000000E+00  0.37468026717E+02  0.37468026717E+02  0.00000000000E+00 0.  1.
         13   -1    0    0    0    0 -0.00000000000E+00 -0.00000000000E+00 -0.10000000000E+04  0.10000000000E+04  0.00000000000E+00 0.  1.
    9000005    2    1    2  501    0  0.14666686655E+02 -0.39309748510E+01 -0.96279832806E+03  0.10222813482E+04  0.34328992122E+03 0.  0.
         13    1    3    3    0    0 -0.14146922857E+03  0.73011292053E+02 -0.33673951746E+03  0.37247509181E+03  0.00000000000E+00 0.  1.
          3    1    3    3  501    0  0.15613591522E+03 -0.76942266904E+02 -0.62605881060E+03  0.64980625635E+03  0.00000000000E+00 0.  1.
         21    1    1    2  502  501 -0.14666686655E+02  0.39309748510E+01  0.26635477953E+00  0.15186678557E+02  0.00000000000E+00 0.  1.
<mgrwt>
<rscale>  1 0.30000000E+03</rscale>
<asrwt>0</asrwt>
<pdfrwt beam="1">  1        1 0.13624766E+00 0.30000000E+03</pdfrwt>
<pdfrwt beam="2">0</pdfrwt>
<totfact> 0.21176041E+01</totfact>
</mgrwt>
</event>
<event>
 6    1  0.1940992E-004  0.3000000E+03  0.7818608E-02  0.1093470E+00
          1   -1    0    0  502    0  0.00000000000E+00  0.00000000000E+00  0.33606905899E+02  0.33606905899E+02  0.00000000000E+00 0.  1.
         13   -1    0    0    0    0 -0.00000000000E+00 -0.00000000000E+00 -0.10000000000E+04  0.10000000000E+04  0.00000000000E+00 0.  1.
    9000005    2    1    2  501    0 -0.10254715355E+02 -0.11124915378E+02 -0.96437508947E+03  0.10183427233E+04  0.32676239973E+03 0.  0.
         13    1    3    3    0    0 -0.12833368008E+03  0.17255739899E+02 -0.81783087705E+03  0.82801850067E+03  0.00000000000E+00 0.  1.
          3    1    3    3  501    0  0.11807896473E+03 -0.28380655277E+02 -0.14654421243E+03  0.19032422258E+03  0.00000000000E+00 0.  1.
         21    1    1    2  502  501  0.10254715355E+02  0.11124915378E+02 -0.20180046274E+01  0.15264182646E+02  0.00000000000E+00 0. -1.
<mgrwt>
<rscale>  1 0.30000000E+03</rscale>
<asrwt>0</asrwt>
<pdfrwt beam="1">  1        1 0.12220719E+00 0.30000000E+03</pdfrwt>
<pdfrwt beam="2">0</pdfrwt>
<totfact> 0.25263065E+01</totfact>
</mgrwt>
</event>
<event>
 6    1  0.1940992E-004  0.3000000E+03  0.7818608E-02  0.1093470E+00
          1   -1    0    0  502    0  0.00000000000E+00  0.00000000000E+00  0.69771231294E+02  0.69771231294E+02  0.00000000000E+00 0.  1.
         13   -1    0    0    0    0 -0.00000000000E+00 -0.00000000000E+00 -0.10000000000E+04  0.10000000000E+04  0.00000000000E+00 0.  1.
    9000005    2    1    2  501    0  0.26053892246E+02  0.26788803091E+02 -0.95794828964E+03  0.10232436361E+04  0.35772359157E+03 0.  0.
         13    1    3    3    0    0 -0.12868656743E+03  0.12161324290E+03 -0.43262978889E+03  0.46745967497E+03  0.00000000000E+00 0.  1.
          1    1    3    3  501    0  0.15474045968E+03 -0.94824439808E+02 -0.52531850075E+03  0.55578396115E+03  0.00000000000E+00 0.  1.
         21    1    1    2  502  501 -0.26053892246E+02 -0.26788803091E+02  0.27719520932E+02  0.46527595176E+02  0.00000000000E+00 0.  1.
<mgrwt>
<rscale>  1 0.30000000E+03</rscale>
<asrwt>0</asrwt>
<pdfrwt beam="1">  1        1 0.25371410E+00 0.30000000E+03</pdfrwt>
<pdfrwt beam="2">0</pdfrwt>
<totfact> 0.57331791E+00</totfact>
</mgrwt>
</event>
<event>
 6    1  0.1940992E-004  0.3000000E+03  0.7818608E-02  0.1093470E+00
          3   -1    0    0  502    0  0.00000000000E+00  0.00000000000E+00  0.28418319618E+02  0.28418319618E+02  0.00000000000E+00 0.  1.
         13   -1    0    0    0    0 -0.00000000000E+00 -0.00000000000E+00 -0.10000000000E+04  0.10000000000E+04  0.00000000000E+00 0.  1.
    9000005    2    1    2  501    0  0.42346602858E+01  0.12613017296E+02 -0.93560361935E+03  0.99005894751E+03  0.32355148964E+03 0.  0.
         13    1    3    3    0    0  0.16350460086E+03  0.65112502636E+01 -0.50878022292E+03  0.53444687866E+03  0.00000000000E+00 0.  1.
          1    1    3    3  501    0 -0.15926994058E+03  0.61017670325E+01 -0.42682339644E+03  0.45561206884E+03  0.00000000000E+00 0.  1.
         21    1    1    2  502  501 -0.42346602858E+01 -0.12613017296E+02 -0.35978061030E+02  0.38359372108E+02  0.00000000000E+00 0.  1.
<mgrwt>
<rscale>  1 0.30000000E+03</rscale>
<asrwt>0</asrwt>
<pdfrwt beam="1">  1        3 0.10333956E+00 0.30000000E+03</pdfrwt>
<pdfrwt beam="2">0</pdfrwt>
<totfact> 0.35886176E+00</totfact>
</mgrwt>
</event>
<event>
 6    1  0.1940992E-004  0.3000000E+03  0.7818608E-02  0.1093470E+00
          1   -1    0    0  502    0  0.00000000000E+00  0.00000000000E+00  0.27298791517E+02  0.27298791517E+02  0.00000000000E+00 0.  1.
         13   -1    0    0    0    0 -0.00000000000E+00 -0.00000000000E+00 -0.10000000000E+04  0.10000000000E+04  0.00000000000E+00 0.  1.
    9000005    2    1    2  501    0  0.10400099969E+02  0.61558741643E+01 -0.96699669481E+03  0.10139347224E+04  0.30468829438E+03 0.  0.
         13    1    3    3    0    0 -0.13171538796E+03 -0.49770359863E+02 -0.32809055572E+03  0.35702863317E+03  0.00000000000E+00 0.  1.
          1    1    3    3  501    0  0.14211548793E+03  0.55926234027E+02 -0.63890613908E+03  0.65690608927E+03  0.00000000000E+00 0.  1.
         21    1    1    2  502  501 -0.10400099969E+02 -0.61558741643E+01 -0.57045136775E+01  0.13364069080E+02  0.00000000000E+00 0.  1.
<mgrwt>
<rscale>  1 0.30000000E+03</rscale>
<asrwt>0</asrwt>
<pdfrwt beam="1">  1        1 0.99268542E-01 0.30000000E+03</pdfrwt>
<pdfrwt beam="2">0</pdfrwt>
<totfact> 0.34595902E+01</totfact>
</mgrwt>
</event>
<event>
 6    1  0.1940992E-004  0.3000000E+03  0.7818608E-02  0.1093470E+00
          1   -1    0    0  502    0  0.00000000000E+00  0.00000000000E+00  0.28582905575E+02  0.28582905575E+02  0.00000000000E+00 0.  1.
         13   -1    0    0    0    0 -0.00000000000E+00 -0.00000000000E+00 -0.10000000000E+04  0.10000000000E+04  0.00000000000E+00 0.  1.
    9000005    2    1    2  501    0 -0.20443281875E+01  0.10608532444E+02 -0.96859167480E+03  0.10174158453E+04  0.31120483544E+03 0.  0.
         13    1    3    3    0    0  0.10095196163E+03 -0.11201976780E+03 -0.49716323180E+03  0.51952960069E+03  0.00000000000E+00 0.  1.
          3    1    3    3  501    0 -0.10299628982E+03  0.12262830024E+03 -0.47142844300E+03  0.49788624465E+03  0.00000000000E+00 0.  1.
         21    1    1    2  502  501  0.20443281875E+01 -0.10608532444E+02 -0.28254196216E+01  0.11167060240E+02  0.00000000000E+00 0. -1.
<mgrwt>
<rscale>  1 0.30000000E+03</rscale>
<asrwt>0</asrwt>
<pdfrwt beam="1">  1        1 0.10393806E+00 0.30000000E+03</pdfrwt>
<pdfrwt beam="2">0</pdfrwt>
<totfact> 0.32336446E+01</totfact>
</mgrwt>
</event>
<event>
 6    1  0.1940992E-004  0.3000000E+03  0.7818608E-02  0.1093470E+00
          1   -1    0    0  502    0  0.00000000000E+00  0.00000000000E+00  0.44664486665E+02  0.44664486665E+02  0.00000000000E+00 0.  1.
         13   -1    0    0    0    0 -0.00000000000E+00 -0.00000000000E+00 -0.10000000000E+04  0.10000000000E+04  0.00000000000E+00 0.  1.
    9000005    2    1    2  501    0 -0.80629848196E+00  0.13129673502E+02 -0.96614221818E+03  0.10276402888E+04  0.34991533115E+03 0.  0.
         13    1    3    3    0    0 -0.58564708907E+02 -0.90094103964E+02 -0.86604706003E+03  0.87268796422E+03  0.00000000000E+00 0.  1.
          1    1    3    3  501    0  0.57758410425E+02  0.10322377747E+03 -0.10009515815E+03  0.15495232458E+03  0.00000000000E+00 0.  1.
         21    1    1    2  502  501  0.80629848196E+00 -0.13129673502E+02  0.10806704841E+02  0.17024197867E+02  0.00000000000E+00 0. -1.
<mgrwt>
<rscale>  1 0.30000000E+03</rscale>
<asrwt>0</asrwt>
<pdfrwt beam="1">  1        1 0.16241666E+00 0.30000000E+03</pdfrwt>
<pdfrwt beam="2">0</pdfrwt>
<totfact> 0.15567676E+01</totfact>
</mgrwt>
</event>
<event>
 6    1  0.1940992E-004  0.3000000E+03  0.7818608E-02  0.1093470E+00
          1   -1    0    0  502    0  0.00000000000E+00  0.00000000000E+00  0.35124313844E+02  0.35124313844E+02  0.00000000000E+00 0.  1.
         13   -1    0    0    0    0 -0.00000000000E+00 -0.00000000000E+00 -0.10000000000E+04  0.10000000000E+04  0.00000000000E+00 0.  1.
    9000005    2    1    2  501    0  0.27116074377E+02  0.73678411167E+01 -0.94674788056E+03  0.10016850569E+04  0.32596293839E+03 0.  0.
         13    1    3    3    0    0 -0.11649301173E+03  0.13040551556E+02 -0.14166293871E+03  0.18387241765E+03  0.00000000000E+00 0.  1.
          1    1    3    3  501    0  0.14360908611E+03 -0.56727104389E+01 -0.80508494185E+03  0.81781263921E+03  0.00000000000E+00 0.  1.
         21    1    1    2  502  501 -0.27116074377E+02 -0.73678411167E+01 -0.18127805592E+02  0.33439256988E+02  0.00000000000E+00 0. -1.
<mgrwt>
<rscale>  1 0.30000000E+03</rscale>
<asrwt>0</asrwt>
<pdfrwt beam="1">  1        1 0.12772505E+00 0.30000000E+03</pdfrwt>
<pdfrwt beam="2">0</pdfrwt>
<totfact> 0.23544585E+01</totfact>
</mgrwt>
</event>
<event>
 6    1  0.1940992E-004  0.3000000E+03  0.7818608E-02  0.1093470E+00
          1   -1    0    0  502    0  0.00000000000E+00  0.00000000000E+00  0.50329211138E+02  0.50329211138E+02  0.00000000000E+00 0.  1.
         13   -1    0    0    0    0 -0.00000000000E+00 -0.00000000000E+00 -0.10000000000E+04  0.10000000000E+04  0.00000000000E+00 0.  1.
    9000005    2    1    2  501    0  0.43184639298E+02  0.85597254857E+02 -0.82129588435E+03  0.89010462121E+03  0.32949583295E+03 0.  0.
         13    1    3    3    0    0 -0.66349111831E+02 -0.21429432627E+02 -0.17549109844E+02  0.71898515143E+02  0.00000000000E+00 0.  1.
          1    1    3    3  501    0  0.10953375113E+03  0.10702668748E+03 -0.80374677451E+03  0.81820610607E+03  0.00000000000E+00 0.  1.
         21    1    1    2  502  501 -0.43184639298E+02 -0.85597254857E+02 -0.12837490451E+03  0.16022458993E+03  0.00000000000E+00 0.  1.
<mgrwt>
<rscale>  1 0.30000000E+03</rscale>
<asrwt>0</asrwt>
<pdfrwt beam="1">  1        1 0.18301570E+00 0.30000000E+03</pdfrwt>
<pdfrwt beam="2">0</pdfrwt>
<totfact> 0.12353196E+01</totfact>
</mgrwt>
</event>
<event>
 6    1  0.1940992E-004  0.3000000E+03  0.7818608E-02  0.1093470E+00
          1   -1    0    0  502    0  0.00000000000E+00  0.00000000000E+00  0.59410122918E+02  0.59410122918E+02  0.00000000000E+00 0.  1.
         13   -1    0    0    0    0 -0.00000000000E+00 -0.00000000000E+00 -0.10000000000E+04  0.10000000000E+04  0.00000000000E+00 0.  1.
    9000005    2    1    2  501    0  0.37826336918E+01 -0.12982295542E+02 -0.97088372707E+03  0.10262353484E+04  0.33220615674E+03 0.  0.
         13    1    3    3    0    0 -0.14760930758E+03  0.22409870520E+02 -0.68221281808E+03  0.69835881833E+03  0.00000000000E+00 0.  1.
          1    1    3    3  501    0  0.15139194127E+03 -0.35392166062E+02 -0.28867090899E+03  0.32787653011E+03  0.00000000000E+00 0.  1.
         21    1    1    2  502  501 -0.37826336918E+01  0.12982295542E+02  0.30293849984E+02  0.33174774484E+02  0.00000000000E+00 0.  1.
<mgrwt>
<rscale>  1 0.30000000E+03</rscale>
<asrwt>0</asrwt>
<pdfrwt beam="1">  1        1 0.21603727E+00 0.30000000E+03</pdfrwt>
<pdfrwt beam="2">0</pdfrwt>
<totfact> 0.86038626E+00</totfact>
</mgrwt>
</event>
<event>
 6    1  0.1940992E-004  0.3000000E+03  0.7818608E-02  0.1093470E+00
          1   -1    0    0  502    0  0.00000000000E+00  0.00000000000E+00  0.33373936259E+02  0.33373936259E+02  0.00000000000E+00 0.  1.
         13   -1    0    0    0    0 -0.00000000000E+00 -0.00000000000E+00 -0.10000000000E+04  0.10000000000E+04  0.00000000000E+00 0.  1.
    9000005    2    1    2  501    0  0.26520022713E+02  0.64300170379E+01 -0.84739572439E+03  0.91106068863E+03  0.33347774728E+03 0.  0.
         13    1    3    3    0    0  0.45443875487E+02  0.16350017661E+03 -0.52853121751E+03  0.55510602722E+03  0.00000000000E+00 0.  1.
          1    1    3    3  501    0 -0.18923852774E+02 -0.15707015957E+03 -0.31886450689E+03  0.35595466142E+03  0.00000000000E+00 0.  1.
         21    1    1    2  502  501 -0.26520022713E+02 -0.64300170379E+01 -0.11923033935E+03  0.12231324763E+03  0.00000000000E+00 0.  1.
<mgrwt>
<rscale>  1 0.30000000E+03</rscale>
<asrwt>0</asrwt>
<pdfrwt beam="1">  1        1 0.12136002E+00 0.30000000E+03</pdfrwt>
<pdfrwt beam="2">0</pdfrwt>
<totfact> 0.25541109E+01</totfact>
</mgrwt>
</event>
<event>
 6    1  0.1940992E-004  0.3000000E+03  0.7818608E-02  0.1093470E+00
          1   -1    0    0  502    0  0.00000000000E+00  0.00000000000E+00  0.35738514907E+02  0.35738514907E+02  0.00000000000E+00 0.  1.
         13   -1    0    0    0    0 -0.00000000000E+00 -0.00000000000E+00 -0.10000000000E+04  0.10000000000E+04  0.00000000000E+00 0.  1.
    9000005    2    1    2  501    0 -0.66578765454E+01 -0.76307459437E+01 -0.97088424450E+03  0.10236382444E+04  0.32421672320E+03 0.  0.
         13    1    3    3    0    0 -0.14426545520E+03 -0.68811597587E+02 -0.35028852059E+03  0.38503195346E+03  0.00000000000E+00 0.  1.
          3    1    3    3  501    0  0.13760757866E+03  0.61180851643E+02 -0.62059572391E+03  0.63860629096E+03  0.00000000000E+00 0.  1.
         21    1    1    2  502  501  0.66578765454E+01  0.76307459437E+01  0.66227594107E+01  0.12100270491E+02  0.00000000000E+00 0.  1.
<mgrwt>
<rscale>  1 0.30000000E+03</rscale>
<asrwt>0</asrwt>
<pdfrwt beam="1">  1        1 0.12995851E+00 0.30000000E+03</pdfrwt>
<pdfrwt beam="2">0</pdfrwt>
<totfact> 0.22891685E+01</totfact>
</mgrwt>
</event>
<event>
 6    1  0.1940992E-004  0.3000000E+03  0.7818608E-02  0.1093470E+00
          1   -1    0    0  502    0  0.00000000000E+00  0.00000000000E+00  0.30327770375E+02  0.30327770375E+02  0.00000000000E+00 0.  1.
         13   -1    0    0    0    0 -0.00000000000E+00 -0.00000000000E+00 -0.10000000000E+04  0.10000000000E+04  0.00000000000E+00 0.  1.
    9000005    2    1    2  501    0  0.17040406938E+02 -0.14327984672E+02 -0.92401390921E+03  0.97953063624E+03  0.32431912726E+03 0.  0.
         13    1    3    3    0    0  0.36997512937E+01  0.27763302932E+02 -0.93386936217E+03  0.93428928857E+03  0.00000000000E+00 0.  1.
          3    1    3    3  501    0  0.13340655644E+02 -0.42091287604E+02  0.98554529608E+01  0.45241347662E+02  0.00000000000E+00 0.  1.
         21    1    1    2  502  501 -0.17040406938E+02  0.14327984672E+02 -0.45658320419E+02  0.50797134140E+02  0.00000000000E+00 0.  1.
<mgrwt>
<rscale>  1 0.30000000E+03</rscale>
<asrwt>0</asrwt>
<pdfrwt beam="1">  1        1 0.11028303E+00 0.30000000E+03</pdfrwt>
<pdfrwt beam="2">0</pdfrwt>
<totfact> 0.29594554E+01</totfact>
</mgrwt>
</event>
<event>
 6    1  0.1940992E-004  0.3000000E+03  0.7818608E-02  0.1093470E+00
          1   -1    0    0  502    0  0.00000000000E+00  0.00000000000E+00  0.31527945716E+02  0.31527945716E+02  0.00000000000E+00 0.  1.
         13   -1    0    0    0    0 -0.00000000000E+00 -0.00000000000E+00 -0.10000000000E+04  0.10000000000E+04  0.00000000000E+00 0.  1.
    9000005    2    1    2  501    0 -0.18067595465E+02  0.57845329863E+01 -0.93688223442E+03  0.99467939694E+03  0.33358489579E+03 0.  0.
         13    1    3    3    0    0  0.82818918627E+02  0.71376340620E+02 -0.96812836183E+02  0.14603520306E+03  0.00000000000E+00 0.  1.
          3    1    3    3  501    0 -0.10088651409E+03 -0.65591807634E+02 -0.84006939823E+03  0.84864419388E+03  0.00000000000E+00 0.  1.
         21    1    1    2  502  501  0.18067595465E+02 -0.57845329863E+01 -0.31589819867E+02  0.36848548777E+02  0.00000000000E+00 0. -1.
<mgrwt>
<rscale>  1 0.30000000E+03</rscale>
<asrwt>0</asrwt>
<pdfrwt beam="1">  1        1 0.11464732E+00 0.30000000E+03</pdfrwt>
<pdfrwt beam="2">0</pdfrwt>
<totfact> 0.27897214E+01</totfact>
</mgrwt>
</event>
<event>
 6    1  0.1940992E-004  0.3000000E+03  0.7818608E-02  0.1093470E+00
          3   -1    0    0  502    0  0.00000000000E+00  0.00000000000E+00  0.29721385543E+02  0.29721385543E+02  0.00000000000E+00 0.  1.
         13   -1    0    0    0    0 -0.00000000000E+00 -0.00000000000E+00 -0.10000000000E+04  0.10000000000E+04  0.00000000000E+00 0.  1.
    9000005    2    1    2  501    0 -0.11276859047E+02  0.12383537036E+02 -0.95289234302E+03  0.10055800937E+04  0.32079119039E+03 0.  0.
         13    1    3    3    0    0  0.74998866576E+02  0.99779690818E+02 -0.79900870016E+03  0.80870001831E+03  0.00000000000E+00 0.  1.
          3    1    3    3  501    0 -0.86275725623E+02 -0.87396153782E+02 -0.15388364286E+03  0.19688007535E+03  0.00000000000E+00 0.  1.
         21    1    1    2  502  501  0.11276859047E+02 -0.12383537036E+02 -0.17386271439E+02  0.24141291888E+02  0.00000000000E+00 0. -1.
<mgrwt>
<rscale>  1 0.30000000E+03</rscale>
<asrwt>0</asrwt>
<pdfrwt beam="1">  1        3 0.10807799E+00 0.30000000E+03</pdfrwt>
<pdfrwt beam="2">0</pdfrwt>
<totfact> 0.31694674E+00</totfact>
</mgrwt>
</event>
<event>
 6    1  0.1940992E-004  0.3000000E+03  0.7818608E-02  0.1093470E+00
          1   -1    0    0  502    0  0.00000000000E+00  0.00000000000E+00  0.30219825238E+02  0.30219825238E+02  0.00000000000E+00 0.  1.
         13   -1    0    0    0    0 -0.00000000000E+00 -0.00000000000E+00 -0.10000000000E+04  0.10000000000E+04  0.00000000000E+00 0.  1.
    9000005    2    1    2  501    0 -0.51520589102E+01  0.59984204384E+01 -0.94113880433E+03  0.10005069853E+04  0.33942518144E+03 0.  0.
         13    1    3    3    0    0  0.11573743643E+03 -0.11680117476E+03 -0.39601230384E+03  0.42879297267E+03  0.00000000000E+00 0.  1.
          3    1    3    3  501    0 -0.12088949534E+03  0.12279959520E+03 -0.54512650050E+03  0.57171401261E+03  0.00000000000E+00 0.  1.
         21    1    1    2  502  501  0.51520589102E+01 -0.59984204384E+01 -0.28641370429E+02  0.29712839966E+02  0.00000000000E+00 0. -1.
<mgrwt>
<rscale>  1 0.30000000E+03</rscale>
<asrwt>0</asrwt>
<pdfrwt beam="1">  1        1 0.10989051E+00 0.30000000E+03</pdfrwt>
<pdfrwt beam="2">0</pdfrwt>
<totfact> 0.29754335E+01</totfact>
</mgrwt>
</event>
<event>
 6    1  0.1940992E-004  0.3000000E+03  0.7818608E-02  0.1093470E+00
          1   -1    0    0  502    0  0.00000000000E+00  0.00000000000E+00  0.31496976751E+02  0.31496976751E+02  0.00000000000E+00 0.  1.
         13   -1    0    0    0    0 -0.00000000000E+00 -0.00000000000E+00 -0.10000000000E+04  0.10000000000E+04  0.00000000000E+00 0.  1.
    9000005    2    1    2  501    0 -0.51684915274E+01 -0.88054701079E+01 -0.96712995601E+03  0.10211947963E+04  0.32771055913E+03 0.  0.
         13    1    3    3    0    0  0.11800008426E+03 -0.26801243006E+02 -0.81818270747E+03  0.82708238363E+03  0.00000000000E+00 0.  1.
          3    1    3    3  501    0 -0.12316857578E+03  0.17995772898E+02 -0.14894724853E+03  0.19411241266E+03  0.00000000000E+00 0.  1.
         21    1    1    2  502  501  0.51684915274E+01  0.88054701079E+01 -0.13730672433E+01  0.10302180456E+02  0.00000000000E+00 0.  1.
<mgrwt>
<rscale>  1 0.30000000E+03</rscale>
<asrwt>0</asrwt>
<pdfrwt beam="1">  1        1 0.11453470E+00 0.30000000E+03</pdfrwt>
<pdfrwt beam="2">0</pdfrwt>
<totfact> 0.27939253E+01</totfact>
</mgrwt>
</event>
<event>
 6    1  0.1940992E-004  0.3000000E+03  0.7818608E-02  0.1093470E+00
          1   -1    0    0  502    0  0.00000000000E+00  0.00000000000E+00  0.28506244505E+02  0.28506244505E+02  0.00000000000E+00 0.  1.
         13   -1    0    0    0    0 -0.00000000000E+00 -0.00000000000E+00 -0.10000000000E+04  0.10000000000E+04  0.00000000000E+00 0.  1.
    9000005    2    1    2  501    0  0.22415058648E+02  0.45620165317E+01 -0.93629102584E+03  0.98652435527E+03  0.30994543328E+03 0.  0.
         13    1    3    3    0    0  0.67471574524E+02 -0.13389424830E+03 -0.62695911916E+03  0.64463774338E+03  0.00000000000E+00 0.  1.
          1    1    3    3  501    0 -0.45056515876E+02  0.13845626483E+03 -0.30933190668E+03  0.34188661188E+03  0.00000000000E+00 0.  1.
         21    1    1    2  502  501 -0.22415058648E+02 -0.45620165317E+01 -0.35202729651E+02  0.41981889237E+02  0.00000000000E+00 0.  1.
<mgrwt>
<rscale>  1 0.30000000E+03</rscale>
<asrwt>0</asrwt>
<pdfrwt beam="1">  1        1 0.10365929E+00 0.30000000E+03</pdfrwt>
<pdfrwt beam="2">0</pdfrwt>
<totfact> 0.32465192E+01</totfact>
</mgrwt>
</event>
<event>
 6    1  0.1940992E-004  0.3000000E+03  0.7818608E-02  0.1093470E+00
          1   -1    0    0  502    0  0.00000000000E+00  0.00000000000E+00  0.29443321881E+02  0.29443321881E+02  0.00000000000E+00 0.  1.
         13   -1    0    0    0    0 -0.00000000000E+00 -0.00000000000E+00 -0.10000000000E+04  0.10000000000E+04  0.00000000000E+00 0.  1.
    9000005    2    1    2  501    0 -0.23611318437E+01  0.10764247473E+02 -0.96282257442E+03  0.10159800263E+04  0.32413987738E+03 0.  0.
         13    1    3    3    0    0 -0.91744337438E+02 -0.52962837397E+02 -0.85693827612E+03  0.86346122940E+03  0.00000000000E+00 0.  1.
          3    1    3    3  501    0  0.89383205594E+02  0.63727084870E+02 -0.10588429830E+03  0.15251879692E+03  0.00000000000E+00 0.  1.
         21    1    1    2  502  501  0.23611318437E+01 -0.10764247473E+02 -0.77341036952E+01  0.13463295556E+02  0.00000000000E+00 0. -1.
<mgrwt>
<rscale>  1 0.30000000E+03</rscale>
<asrwt>0</asrwt>
<pdfrwt beam="1">  1        1 0.10706685E+00 0.30000000E+03</pdfrwt>
<pdfrwt beam="2">0</pdfrwt>
<totfact> 0.30940790E+01</totfact>
</mgrwt>
</event>
<event>
 6    1  0.1940992E-004  0.3000000E+03  0.7818608E-02  0.1093470E+00
          1   -1    0    0  502    0  0.00000000000E+00  0.00000000000E+00  0.28080810116E+02  0.28080810116E+02  0.00000000000E+00 0.  1.
         13   -1    0    0    0    0 -0.00000000000E+00 -0.00000000000E+00 -0.10000000000E+04  0.10000000000E+04  0.00000000000E+00 0.  1.
    9000005    2    1    2  501    0 -0.52102208429E+01 -0.14122145272E+02 -0.95365237539E+03  0.10044110425E+04  0.31490015525E+03 0.  0.
         13    1    3    3    0    0 -0.56837217318E+02  0.13266475191E+03 -0.61520960908E+03  0.63191239011E+03  0.00000000000E+00 0.  1.
          1    1    3    3  501    0  0.51626996476E+02 -0.14678689718E+03 -0.33844276631E+03  0.37249865236E+03  0.00000000000E+00 0.  1.
         21    1    1    2  502  501  0.52102208429E+01  0.14122145272E+02 -0.18266814495E+02  0.23669767639E+02  0.00000000000E+00 0. -1.
<mgrwt>
<rscale>  1 0.30000000E+03</rscale>
<asrwt>0</asrwt>
<pdfrwt beam="1">  1        1 0.10211225E+00 0.30000000E+03</pdfrwt>
<pdfrwt beam="2">0</pdfrwt>
<totfact> 0.33193427E+01</totfact>
</mgrwt>
</event>
<event>
 6    1  0.1940992E-004  0.3000000E+03  0.7818608E-02  0.1093470E+00
          1   -1    0    0  502    0  0.00000000000E+00  0.00000000000E+00  0.39962504466E+02  0.39962504466E+02  0.00000000000E+00 0.  1.
         13   -1    0    0    0    0 -0.00000000000E+00 -0.00000000000E+00 -0.10000000000E+04  0.10000000000E+04  0.00000000000E+00 0.  1.
    9000005    2    1    2  501    0  0.50457120153E+02  0.28411364862E+02 -0.86602517703E+03  0.92954763836E+03  0.33272522913E+03 0.  0.
         13    1    3    3    0    0  0.99631176423E+02  0.16431719324E+03 -0.45789806367E+03  0.49658548914E+03  0.00000000000E+00 0.  1.
          1    1    3    3  501    0 -0.49174056270E+02 -0.13590582838E+03 -0.40812711336E+03  0.43296214922E+03  0.00000000000E+00 0.  1.
         21    1    1    2  502  501 -0.50457120153E+02 -0.28411364862E+02 -0.94012318501E+02  0.11041486611E+03  0.00000000000E+00 0.  1.
<mgrwt>
<rscale>  1 0.30000000E+03</rscale>
<asrwt>0</asrwt>
<pdfrwt beam="1">  1        1 0.14531850E+00 0.30000000E+03</pdfrwt>
<pdfrwt beam="2">0</pdfrwt>
<totfact> 0.18984244E+01</totfact>
</mgrwt>
</event>
<event>
 6    1  0.1940992E-004  0.3000000E+03  0.7818608E-02  0.1093470E+00
          1   -1    0    0  502    0  0.00000000000E+00  0.00000000000E+00  0.52170359962E+02  0.52170359962E+02  0.00000000000E+00 0.  1.
         13   -1    0    0    0    0 -0.00000000000E+00 -0.00000000000E+00 -0.10000000000E+04  0.10000000000E+04  0.00000000000E+00 0.  1.
    9000005    2    1    2  501    0  0.14724444527E+02 -0.45830893108E+01 -0.97202569026E+03  0.10234778031E+04  0.32005477169E+03 0.  0.
         13    1    3    3    0    0  0.16133351452E+03 -0.12342061157E+02 -0.37042780953E+03  0.40422467942E+03  0.00000000000E+00 0.  1.
          1    1    3    3  501    0 -0.14660907000E+03  0.77589718465E+01 -0.60159788074E+03  0.61925312366E+03  0.00000000000E+00 0.  1.
         21    1    1    2  502  501 -0.14724444527E+02  0.45830893108E+01  0.24196050224E+02  0.28692556887E+02  0.00000000000E+00 0.  1.
<mgrwt>
<rscale>  1 0.30000000E+03</rscale>
<asrwt>0</asrwt>
<pdfrwt beam="1">  1        1 0.18971080E+00 0.30000000E+03</pdfrwt>
<pdfrwt beam="2">0</pdfrwt>
<totfact> 0.11470594E+01</totfact>
</mgrwt>
</event>
<event>
 6    1  0.1940992E-004  0.3000000E+03  0.7818608E-02  0.1093470E+00
          1   -1    0    0  502    0  0.00000000000E+00  0.00000000000E+00  0.39537782755E+02  0.39537782755E+02  0.00000000000E+00 0.  1.
         13   -1    0    0    0    0 -0.00000000000E+00 -0.00000000000E+00 -0.10000000000E+04  0.10000000000E+04  0.00000000000E+00 0.  1.
    9000005    2    1    2  501    0 -0.14146188503E+02 -0.13532444463E+01 -0.96916923972E+03  0.10228717046E+04  0.32676530260E+03 0.  0.
         13    1    3    3    0    0  0.53075387971E+02  0.12257526908E+03 -0.19749430860E+03  0.23842335315E+03  0.00000000000E+00 0.  1.
          3    1    3    3  501    0 -0.67221576474E+02 -0.12392851353E+03 -0.77167493112E+03  0.78444835148E+03  0.00000000000E+00 0.  1.
         21    1    1    2  502  501  0.14146188503E+02  0.13532444463E+01  0.87070224796E+01  0.16666078127E+02  0.00000000000E+00 0.  1.
<mgrwt>
<rscale>  1 0.30000000E+03</rscale>
<asrwt>0</asrwt>
<pdfrwt beam="1">  1        1 0.14377406E+00 0.30000000E+03</pdfrwt>
<pdfrwt beam="2">0</pdfrwt>
<totfact> 0.19336363E+01</totfact>
</mgrwt>
</event>
<event>
 6    1  0.1940992E-004  0.3000000E+03  0.7818608E-02  0.1093470E+00
          1   -1    0    0  502    0  0.00000000000E+00  0.00000000000E+00  0.69481280424E+02  0.69481280424E+02  0.00000000000E+00 0.  1.
         13   -1    0    0    0    0 -0.00000000000E+00 -0.00000000000E+00 -0.10000000000E+04  0.10000000000E+04  0.00000000000E+00 0.  1.
    9000005    2    1    2  501    0  0.12072354934E+02 -0.17084000857E+02 -0.93889287075E+03  0.10469483879E+04  0.46275641464E+03 0.  0.
         13    1    3    3    0    0 -0.88076265605E+02  0.19476916259E+03 -0.58188102115E+03  0.61990158738E+03  0.00000000000E+00 0.  1.
          3    1    3    3  501    0  0.10014862054E+03 -0.21185316345E+03 -0.35701184960E+03  0.42704680049E+03  0.00000000000E+00 0.  1.
         21    1    1    2  502  501 -0.12072354934E+02  0.17084000857E+02  0.83741511707E+01  0.22532892552E+02  0.00000000000E+00 0.  1.
<mgrwt>
<rscale>  1 0.30000000E+03</rscale>
<asrwt>0</asrwt>
<pdfrwt beam="1">  1        1 0.25265973E+00 0.30000000E+03</pdfrwt>
<pdfrwt beam="2">0</pdfrwt>
<totfact> 0.57983676E+00</totfact>
</mgrwt>
</event>
<event>
 6    1  0.1940992E-004  0.3000000E+03  0.7818608E-02  0.1093470E+00
          1   -1    0    0  502    0  0.00000000000E+00  0.00000000000E+00  0.37516778076E+02  0.37516778076E+02  0.00000000000E+00 0.  1.
         13   -1    0    0    0    0 -0.00000000000E+00 -0.00000000000E+00 -0.10000000000E+04  0.10000000000E+04  0.00000000000E+00 0.  1.
    9000005    2    1    2  501    0 -0.93751953604E+01 -0.65797591216E+01 -0.97219350417E+03  0.10225008832E+04  0.31657014871E+03 0.  0.
         13    1    3    3    0    0 -0.12117093829E+03 -0.47449895109E+02 -0.81500618833E+03  0.82532961648E+03  0.00000000000E+00 0.  1.
          1    1    3    3  501    0  0.11179574293E+03  0.40870135987E+02 -0.15718731584E+03  0.19717126670E+03  0.00000000000E+00 0.  1.
         21    1    1    2  502  501  0.93751953604E+01  0.65797591216E+01  0.97102822425E+01  0.15015894891E+02  0.00000000000E+00 0. -1.
<mgrwt>
<rscale>  1 0.30000000E+03</rscale>
<asrwt>0</asrwt>
<pdfrwt beam="1">  1        1 0.13642494E+00 0.30000000E+03</pdfrwt>
<pdfrwt beam="2">0</pdfrwt>
<totfact> 0.21130192E+01</totfact>
</mgrwt>
</event>
<event>
 6    1  0.1940992E-004  0.3000000E+03  0.7818608E-02  0.1093470E+00
          1   -1    0    0  502    0  0.00000000000E+00  0.00000000000E+00  0.35957283948E+02  0.35957283948E+02  0.00000000000E+00 0.  1.
         13   -1    0    0    0    0 -0.00000000000E+00 -0.00000000000E+00 -0.10000000000E+04  0.10000000000E+04  0.00000000000E+00 0.  1.
    9000005    2    1    2  501    0  0.37287581134E+01  0.20238127298E+02 -0.95144005895E+03  0.10118261340E+04  0.34370111167E+03 0.  0.
         13    1    3    3    0    0 -0.94526570282E+02  0.14922171197E+03 -0.58565603045E+03  0.61171511165E+03  0.00000000000E+00 0.  1.
          3    1    3    3  501    0  0.98255328395E+02 -0.12898358468E+03 -0.36578402850E+03  0.40011102231E+03  0.00000000000E+00 0.  1.
         21    1    1    2  502  501 -0.37287581134E+01 -0.20238127298E+02 -0.12602657105E+02  0.24131149987E+02  0.00000000000E+00 0. -1.
<mgrwt>
<rscale>  1 0.30000000E+03</rscale>
<asrwt>0</asrwt>
<pdfrwt beam="1">  1        1 0.13075404E+00 0.30000000E+03</pdfrwt>
<pdfrwt beam="2">0</pdfrwt>
<totfact> 0.22664809E+01</totfact>
</mgrwt>
</event>
<event>
 6    1  0.1940992E-004  0.3000000E+03  0.7818608E-02  0.1093470E+00
          1   -1    0    0  502    0  0.00000000000E+00  0.00000000000E+00  0.34637210678E+02  0.34637210678E+02  0.00000000000E+00 0.  1.
         13   -1    0    0    0    0 -0.00000000000E+00 -0.00000000000E+00 -0.10000000000E+04  0.10000000000E+04  0.00000000000E+00 0.  1.
    9000005    2    1    2  501    0  0.31235444700E+02 -0.66458080534E+01 -0.93391464519E+03  0.98981751032E+03  0.32637757196E+03 0.  0.
         13    1    3    3    0    0  0.89567029705E+02  0.10747437849E+03 -0.76551493666E+03  0.77819413586E+03  0.00000000000E+00 0.  1.
          3    1    3    3  501    0 -0.58331585005E+02 -0.11412018654E+03 -0.16839970853E+03  0.21162337446E+03  0.00000000000E+00 0.  1.
         21    1    1    2  502  501 -0.31235444700E+02  0.66458080534E+01 -0.31448144135E+02  0.44819700354E+02  0.00000000000E+00 0.  1.
<mgrwt>
<rscale>  1 0.30000000E+03</rscale>
<asrwt>0</asrwt>
<pdfrwt beam="1">  1        1 0.12595376E+00 0.30000000E+03</pdfrwt>
<pdfrwt beam="2">0</pdfrwt>
<totfact> 0.24079494E+01</totfact>
</mgrwt>
</event>
<event>
 6    1  0.1940992E-004  0.3000000E+03  0.7818608E-02  0.1093470E+00
          1   -1    0    0  502    0  0.00000000000E+00  0.00000000000E+00  0.27964627902E+02  0.27964627902E+02  0.00000000000E+00 0.  1.
         13   -1    0    0    0    0 -0.00000000000E+00 -0.00000000000E+00 -0.10000000000E+04  0.10000000000E+04  0.00000000000E+00 0.  1.
    9000005    2    1    2  501    0 -0.72776468326E+01 -0.35100916008E+01 -0.95382387421E+03  0.10080411859E+04  0.32603951378E+03 0.  0.
         13    1    3    3    0    0  0.69051532800E+02  0.86757535275E+02 -0.11074349940E+03  0.15671345433E+03  0.00000000000E+00 0.  1.
          1    1    3    3  501    0 -0.76329179633E+02 -0.90267626876E+02 -0.84308037481E+03  0.85132773155E+03  0.00000000000E+00 0.  1.
         21    1    1    2  502  501  0.72776468326E+01  0.35100916008E+01 -0.18211497889E+02  0.19923442018E+02  0.00000000000E+00 0.  1.
<mgrwt>
<rscale>  1 0.30000000E+03</rscale>
<asrwt>0</asrwt>
<pdfrwt beam="1">  1        1 0.10168977E+00 0.30000000E+03</pdfrwt>
<pdfrwt beam="2">0</pdfrwt>
<totfact> 0.33396449E+01</totfact>
</mgrwt>
</event>
<event>
 6    1  0.1940992E-004  0.3000000E+03  0.7818608E-02  0.1093470E+00
          1   -1    0    0  502    0  0.00000000000E+00  0.00000000000E+00  0.48121523382E+02  0.48121523382E+02  0.00000000000E+00 0.  1.
         13   -1    0    0    0    0 -0.00000000000E+00 -0.00000000000E+00 -0.10000000000E+04  0.10000000000E+04  0.00000000000E+00 0.  1.
    9000005    2    1    2  501    0 -0.16755932413E+02 -0.84162019198E+01 -0.97568293970E+03  0.10178189461E+04  0.28921724452E+03 0.  0.
         13    1    3    3    0    0 -0.99700786448E+02 -0.93755684692E+02 -0.75294578437E+03  0.76528277743E+03  0.00000000000E+00 0.  1.
          1    1    3    3  501    0  0.82944854035E+02  0.85339482772E+02 -0.22273715533E+03  0.25253616869E+03  0.00000000000E+00 0.  1.
         21    1    1    2  502  501  0.16755932413E+02  0.84162019198E+01  0.23804463087E+02  0.30302577261E+02  0.00000000000E+00 0.  1.
<mgrwt>
<rscale>  1 0.30000000E+03</rscale>
<asrwt>0</asrwt>
<pdfrwt beam="1">  1        1 0.17498773E+00 0.30000000E+03</pdfrwt>
<pdfrwt beam="2">0</pdfrwt>
<totfact> 0.13509703E+01</totfact>
</mgrwt>
</event>
<event>
 6    1  0.1940992E-004  0.3000000E+03  0.7818608E-02  0.1093470E+00
          1   -1    0    0  502    0  0.00000000000E+00  0.00000000000E+00  0.39413683420E+02  0.39413683420E+02  0.00000000000E+00 0.  1.
         13   -1    0    0    0    0 -0.00000000000E+00 -0.00000000000E+00 -0.10000000000E+04  0.10000000000E+04  0.00000000000E+00 0.  1.
    9000005    2    1    2  501    0  0.60432279168E+01 -0.16895745184E+02 -0.96826573988E+03  0.10198954778E+04  0.31988475389E+03 0.  0.
         13    1    3    3    0    0 -0.68990294622E+02  0.12484190688E+03 -0.62419575849E+03  0.64028548897E+03  0.00000000000E+00 0.  1.
          3    1    3    3  501    0  0.75033522539E+02 -0.14173765206E+03 -0.34406998139E+03  0.37960998881E+03  0.00000000000E+00 0.  1.
         21    1    1    2  502  501 -0.60432279168E+01  0.16895745184E+02  0.76794233012E+01  0.19518205635E+02  0.00000000000E+00 0.  1.
<mgrwt>
<rscale>  1 0.30000000E+03</rscale>
<asrwt>0</asrwt>
<pdfrwt beam="1">  1        1 0.14332279E+00 0.30000000E+03</pdfrwt>
<pdfrwt beam="2">0</pdfrwt>
<totfact> 0.19440801E+01</totfact>
</mgrwt>
</event>
<event>
 6    1  0.1940992E-004  0.3000000E+03  0.7818608E-02  0.1093470E+00
          1   -1    0    0  502    0  0.00000000000E+00  0.00000000000E+00  0.30269540092E+02  0.30269540092E+02  0.00000000000E+00 0.  1.
         13   -1    0    0    0    0 -0.00000000000E+00 -0.00000000000E+00 -0.10000000000E+04  0.10000000000E+04  0.00000000000E+00 0.  1.
    9000005    2    1    2  501    0 -0.13782690207E+01  0.14649862981E+02 -0.96663308221E+03  0.10152325238E+04  0.31000168325E+03 0.  0.
         13    1    3    3    0    0 -0.32825991250E+02 -0.14441961072E+03 -0.47427205702E+03  0.49685868588E+03  0.00000000000E+00 0.  1.
          1    1    3    3  501    0  0.31447722229E+02  0.15906947371E+03 -0.49236102519E+03  0.51837383790E+03  0.00000000000E+00 0.  1.
         21    1    1    2  502  501  0.13782690207E+01 -0.14649862981E+02 -0.30973776992E+01  0.15037016308E+02  0.00000000000E+00 0.  1.
<mgrwt>
<rscale>  1 0.30000000E+03</rscale>
<asrwt>0</asrwt>
<pdfrwt beam="1">  1        1 0.11007129E+00 0.30000000E+03</pdfrwt>
<pdfrwt beam="2">0</pdfrwt>
<totfact> 0.29680595E+01</totfact>
</mgrwt>
</event>
<event>
 6    1  0.1940992E-004  0.3000000E+03  0.7818608E-02  0.1093470E+00
          1   -1    0    0  502    0  0.00000000000E+00  0.00000000000E+00  0.29022333330E+02  0.29022333330E+02  0.00000000000E+00 0.  1.
         13   -1    0    0    0    0 -0.00000000000E+00 -0.00000000000E+00 -0.10000000000E+04  0.10000000000E+04  0.00000000000E+00 0.  1.
    9000005    2    1    2  501    0  0.11088313160E+02  0.68940306004E+01 -0.92322621096E+03  0.97951799141E+03  0.32701434302E+03 0.  0.
         13    1    3    3    0    0 -0.33954792281E+02 -0.54340623846E+02 -0.12079094666E+02  0.65205336030E+02  0.00000000000E+00 0.  1.
          3    1    3    3  501    0  0.45043105442E+02  0.61234654447E+02 -0.91114711630E+03  0.91431265538E+03  0.00000000000E+00 0.  1.
         21    1    1    2  502  501 -0.11088313160E+02 -0.68940306004E+01 -0.47751455707E+02  0.49504341919E+02  0.00000000000E+00 0. -1.
<mgrwt>
<rscale>  1 0.30000000E+03</rscale>
<asrwt>0</asrwt>
<pdfrwt beam="1">  1        1 0.10553598E+00 0.30000000E+03</pdfrwt>
<pdfrwt beam="2">0</pdfrwt>
<totfact> 0.31612556E+01</totfact>
</mgrwt>
</event>
<event>
 6    1  0.1940992E-004  0.3000000E+03  0.7818608E-02  0.1093470E+00
          1   -1    0    0  502    0  0.00000000000E+00  0.00000000000E+00  0.29504550678E+02  0.29504550678E+02  0.00000000000E+00 0.  1.
         13   -1    0    0    0    0 -0.00000000000E+00 -0.00000000000E+00 -0.10000000000E+04  0.10000000000E+04  0.00000000000E+00 0.  1.
    9000005    2    1    2  501    0  0.20936028716E+02  0.55597271169E+01 -0.95192578102E+03  0.10009728062E+04  0.30873068887E+03 0.  0.
         13    1    3    3    0    0  0.68704571172E+02 -0.70107998475E+02 -0.88189982908E+03  0.88734590667E+03  0.00000000000E+00 0.  1.
          1    1    3    3  501    0 -0.47768542456E+02  0.75667725592E+02 -0.70025951944E+02  0.11362689950E+03  0.00000000000E+00 0.  1.
         21    1    1    2  502  501 -0.20936028716E+02 -0.55597271169E+01 -0.18569668301E+02  0.28531744510E+02  0.00000000000E+00 0. -1.
<mgrwt>
<rscale>  1 0.30000000E+03</rscale>
<asrwt>0</asrwt>
<pdfrwt beam="1">  1        1 0.10728950E+00 0.30000000E+03</pdfrwt>
<pdfrwt beam="2">0</pdfrwt>
<totfact> 0.30844801E+01</totfact>
</mgrwt>
</event>
<event>
 6    1  0.1940992E-004  0.3000000E+03  0.7818608E-02  0.1093470E+00
          1   -1    0    0  502    0  0.00000000000E+00  0.00000000000E+00  0.43358912367E+02  0.43358912367E+02  0.00000000000E+00 0.  1.
         13   -1    0    0    0    0 -0.00000000000E+00 -0.00000000000E+00 -0.10000000000E+04  0.10000000000E+04  0.00000000000E+00 0.  1.
    9000005    2    1    2  501    0 -0.99480780037E+01 -0.35828266241E+01 -0.97020496551E+03  0.10261606658E+04  0.33406022810E+03 0.  0.
         13    1    3    3    0    0 -0.12420516864E+03  0.76904781181E+02 -0.22711345080E+03  0.27004034665E+03  0.00000000000E+00 0.  1.
          3    1    3    3  501    0  0.11425709064E+03 -0.80487607806E+02 -0.74309151471E+03  0.75612031913E+03  0.00000000000E+00 0.  1.
         21    1    1    2  502  501  0.99480780037E+01  0.35828266241E+01  0.13563877875E+02  0.17198246585E+02  0.00000000000E+00 0.  1.
<mgrwt>
<rscale>  1 0.30000000E+03</rscale>
<asrwt>0</asrwt>
<pdfrwt beam="1">  1        1 0.15766910E+00 0.30000000E+03</pdfrwt>
<pdfrwt beam="2">0</pdfrwt>
<totfact> 0.16436466E+01</totfact>
</mgrwt>
</event>
<event>
 6    1  0.1940992E-004  0.3000000E+03  0.7818608E-02  0.1093470E+00
          1   -1    0    0  502    0  0.00000000000E+00  0.00000000000E+00  0.27402366966E+02  0.27402366966E+02  0.00000000000E+00 0.  1.
         13   -1    0    0    0    0 -0.00000000000E+00 -0.00000000000E+00 -0.10000000000E+04  0.10000000000E+04  0.00000000000E+00 0.  1.
    9000005    2    1    2  501    0 -0.19049410923E+02  0.65266948700E+01 -0.94089396792E+03  0.98984440930E+03  0.30676541192E+03 0.  0.
         13    1    3    3    0    0 -0.10672545590E+03  0.61545577222E+02 -0.15907916549E+03  0.20120726106E+03  0.00000000000E+00 0.  1.
          1    1    3    3  501    0  0.87676044973E+02 -0.55018882352E+02 -0.78181480243E+03  0.78863714823E+03  0.00000000000E+00 0.  1.
         21    1    1    2  502  501  0.19049410923E+02 -0.65266948700E+01 -0.31703665119E+02  0.37557957671E+02  0.00000000000E+00 0.  1.
<mgrwt>
<rscale>  1 0.30000000E+03</rscale>
<asrwt>0</asrwt>
<pdfrwt beam="1">  1        1 0.99645181E-01 0.30000000E+03</pdfrwt>
<pdfrwt beam="2">0</pdfrwt>
<totfact> 0.34405195E+01</totfact>
</mgrwt>
</event>
<event>
 6    1  0.1940992E-004  0.3000000E+03  0.7818608E-02  0.1093470E+00
          1   -1    0    0  502    0  0.00000000000E+00  0.00000000000E+00  0.31321373664E+02  0.31321373664E+02  0.00000000000E+00 0.  1.
         13   -1    0    0    0    0 -0.00000000000E+00 -0.00000000000E+00 -0.10000000000E+04  0.10000000000E+04  0.00000000000E+00 0.  1.
    9000005    2    1    2  501    0 -0.17877538930E+02  0.78772530318E+01 -0.78160728382E+03  0.84323271185E+03  0.31583192159E+03 0.  0.
         13    1    3    3    0    0 -0.16039415823E+02 -0.51322506238E+02  0.53625728753E+01  0.54037206574E+02  0.00000000000E+00 0.  1.
          3    1    3    3  501    0 -0.18381231074E+01  0.59199759270E+02 -0.78696985670E+03  0.78919550527E+03  0.00000000000E+00 0.  1.
         21    1    1    2  502  501  0.17877538930E+02 -0.78772530318E+01 -0.18707134251E+03  0.18808866182E+03  0.00000000000E+00 0. -1.
<mgrwt>
<rscale>  1 0.30000000E+03</rscale>
<asrwt>0</asrwt>
<pdfrwt beam="1">  1        1 0.11389614E+00 0.30000000E+03</pdfrwt>
<pdfrwt beam="2">0</pdfrwt>
<totfact> 0.28179329E+01</totfact>
</mgrwt>
</event>
<event>
 6    1  0.1940992E-004  0.3000000E+03  0.7818608E-02  0.1093470E+00
          1   -1    0    0  502    0  0.00000000000E+00  0.00000000000E+00  0.40865790243E+02  0.40865790243E+02  0.00000000000E+00 0.  1.
         13   -1    0    0    0    0 -0.00000000000E+00 -0.00000000000E+00 -0.10000000000E+04  0.10000000000E+04  0.00000000000E+00 0.  1.
    9000005    2    1    2  501    0 -0.28524599865E+02  0.13706207402E+02 -0.95425885468E+03  0.10088457652E+04  0.32581943350E+03 0.  0.
         13    1    3    3    0    0  0.26881243795E+02  0.33358799220E+02  0.90148036632E+01  0.43779874811E+02  0.00000000000E+00 0.  1.
          3    1    3    3  501    0 -0.55405843659E+02 -0.19652591818E+02 -0.96327365834E+03  0.96506589035E+03  0.00000000000E+00 0.  1.
         21    1    1    2  502  501  0.28524599865E+02 -0.13706207402E+02 -0.48753550814E+01  0.32020025078E+02  0.00000000000E+00 0.  1.
<mgrwt>
<rscale>  1 0.30000000E+03</rscale>
<asrwt>0</asrwt>
<pdfrwt beam="1">  1        1 0.14860319E+00 0.30000000E+03</pdfrwt>
<pdfrwt beam="2">0</pdfrwt>
<totfact> 0.18261763E+01</totfact>
</mgrwt>
</event>
<event>
 6    1  0.1940992E-004  0.3000000E+03  0.7818608E-02  0.1093470E+00
          1   -1    0    0  502    0  0.00000000000E+00  0.00000000000E+00  0.44108277951E+02  0.44108277951E+02  0.00000000000E+00 0.  1.
         13   -1    0    0    0    0 -0.00000000000E+00 -0.00000000000E+00 -0.10000000000E+04  0.10000000000E+04  0.00000000000E+00 0.  1.
    9000005    2    1    2  501    0  0.38535721104E+02 -0.10388493863E+02 -0.93966638584E+03  0.10010248224E+04  0.34276063924E+03 0.  0.
         13    1    3    3    0    0 -0.38180002132E+02 -0.58957270189E+02 -0.89865302648E+03  0.90139388409E+03  0.00000000000E+00 0.  1.
          1    1    3    3  501    0  0.76715723236E+02  0.48568776326E+02 -0.41013359351E+02  0.99630938320E+02  0.00000000000E+00 0.  1.
         21    1    1    2  502  501 -0.38535721104E+02  0.10388493863E+02 -0.16225336214E+02  0.43083455537E+02  0.00000000000E+00 0.  1.
<mgrwt>
<rscale>  1 0.30000000E+03</rscale>
<asrwt>0</asrwt>
<pdfrwt beam="1">  1        1 0.16039408E+00 0.30000000E+03</pdfrwt>
<pdfrwt beam="2">0</pdfrwt>
<totfact> 0.15931097E+01</totfact>
</mgrwt>
</event>
<event>
 6    1  0.1940992E-004  0.3000000E+03  0.7818608E-02  0.1093470E+00
          1   -1    0    0  502    0  0.00000000000E+00  0.00000000000E+00  0.57100254868E+02  0.57100254868E+02  0.00000000000E+00 0.  1.
         13   -1    0    0    0    0 -0.00000000000E+00 -0.00000000000E+00 -0.10000000000E+04  0.10000000000E+04  0.00000000000E+00 0.  1.
    9000005    2    1    2  501    0 -0.10502494785E+02  0.10955287093E+02 -0.96365271698E+03  0.10313902072E+04  0.36729944157E+03 0.  0.
         13    1    3    3    0    0  0.10908870173E+03  0.83155940821E+02 -0.14008555981E+03  0.19605922423E+03  0.00000000000E+00 0.  1.
          1    1    3    3  501    0 -0.11959119651E+03 -0.72200653729E+02 -0.82356715717E+03  0.83533098294E+03  0.00000000000E+00 0.  1.
         21    1    1    2  502  501  0.10502494785E+02 -0.10955287093E+02  0.20752971853E+02  0.25710047699E+02  0.00000000000E+00 0. -1.
<mgrwt>
<rscale>  1 0.30000000E+03</rscale>
<asrwt>0</asrwt>
<pdfrwt beam="1">  1        1 0.20763773E+00 0.30000000E+03</pdfrwt>
<pdfrwt beam="2">0</pdfrwt>
<totfact> 0.94240855E+00</totfact>
</mgrwt>
</event>
<event>
 6    1  0.1940992E-004  0.3000000E+03  0.7818608E-02  0.1093470E+00
          1   -1    0    0  502    0  0.00000000000E+00  0.00000000000E+00  0.39096941956E+02  0.39096941956E+02  0.00000000000E+00 0.  1.
         13   -1    0    0    0    0 -0.00000000000E+00 -0.00000000000E+00 -0.10000000000E+04  0.10000000000E+04  0.00000000000E+00 0.  1.
    9000005    2    1    2  501    0  0.10086563666E+02  0.97477794028E+01 -0.96854371374E+03  0.10231239150E+04  0.32940683371E+03 0.  0.
         13    1    3    3    0    0  0.17343569313E+01  0.54987758196E+02 -0.97510336033E+03  0.97665409684E+03  0.00000000000E+00 0.  1.
          1    1    3    3  501    0  0.83522067349E+01 -0.45239978793E+02  0.65596465916E+01  0.46469818182E+02  0.00000000000E+00 0.  1.
         21    1    1    2  502  501 -0.10086563666E+02 -0.97477794028E+01  0.76406556973E+01  0.15973026932E+02  0.00000000000E+00 0.  1.
<mgrwt>
<rscale>  1 0.30000000E+03</rscale>
<asrwt>0</asrwt>
<pdfrwt beam="1">  1        1 0.14217100E+00 0.30000000E+03</pdfrwt>
<pdfrwt beam="2">0</pdfrwt>
<totfact> 0.19710615E+01</totfact>
</mgrwt>
</event>
<event>
 6    1  0.1940992E-004  0.3000000E+03  0.7818608E-02  0.1093470E+00
          1   -1    0    0  502    0  0.00000000000E+00  0.00000000000E+00  0.46674870891E+02  0.46674870891E+02  0.00000000000E+00 0.  1.
         13   -1    0    0    0    0 -0.00000000000E+00 -0.00000000000E+00 -0.10000000000E+04  0.10000000000E+04  0.00000000000E+00 0.  1.
    9000005    2    1    2  501    0  0.23702620549E+02 -0.21688883372E+02 -0.95992293815E+03  0.10138761976E+04  0.32474709403E+03 0.  0.
         13    1    3    3    0    0 -0.87872369750E+02  0.11611966679E+03 -0.36121026511E+03  0.38945883737E+03  0.00000000000E+00 0.  1.
          1    1    3    3  501    0  0.11157499030E+03 -0.13780855016E+03 -0.59871267303E+03  0.62441736027E+03  0.00000000000E+00 0.  1.
         21    1    1    2  502  501 -0.23702620549E+02  0.21688883372E+02  0.65978090380E+01  0.32798673249E+02  0.00000000000E+00 0. -1.
<mgrwt>
<rscale>  1 0.30000000E+03</rscale>
<asrwt>0</asrwt>
<pdfrwt beam="1">  1        1 0.16972716E+00 0.30000000E+03</pdfrwt>
<pdfrwt beam="2">0</pdfrwt>
<totfact> 0.14331137E+01</totfact>
</mgrwt>
</event>
<event>
 6    1  0.1940992E-004  0.3000000E+03  0.7818608E-02  0.1093470E+00
          1   -1    0    0  502    0  0.00000000000E+00  0.00000000000E+00  0.48215682973E+02  0.48215682973E+02  0.00000000000E+00 0.  1.
         13   -1    0    0    0    0 -0.00000000000E+00 -0.00000000000E+00 -0.10000000000E+04  0.10000000000E+04  0.00000000000E+00 0.  1.
    9000005    2    1    2  501    0  0.47841903868E+02  0.13720619425E+02 -0.93673747548E+03  0.99622038892E+03  0.33541148187E+03 0.  0.
         13    1    3    3    0    0  0.17708234619E+03  0.72646659313E+02 -0.44591721150E+03  0.48526060417E+03  0.00000000000E+00 0.  1.
          3    1    3    3  501    0 -0.12924044232E+03 -0.58926039888E+02 -0.49082026397E+03  0.51095978475E+03  0.00000000000E+00 0.  1.
         21    1    1    2  502  501 -0.47841903868E+02 -0.13720619425E+02 -0.15046841551E+02  0.51995294054E+02  0.00000000000E+00 0.  1.
<mgrwt>
<rscale>  1 0.30000000E+03</rscale>
<asrwt>0</asrwt>
<pdfrwt beam="1">  1        1 0.17533013E+00 0.30000000E+03</pdfrwt>
<pdfrwt beam="2">0</pdfrwt>
<totfact> 0.13458045E+01</totfact>
</mgrwt>
</event>
<event>
 6    1  0.1940992E-004  0.3000000E+03  0.7818608E-02  0.1093470E+00
          1   -1    0    0  502    0  0.00000000000E+00  0.00000000000E+00  0.38306222437E+02  0.38306222437E+02  0.00000000000E+00 0.  1.
         13   -1    0    0    0    0 -0.00000000000E+00 -0.00000000000E+00 -0.10000000000E+04  0.10000000000E+04  0.00000000000E+00 0.  1.
    9000005    2    1    2  501    0  0.28139108269E+02 -0.39637329220E+02 -0.90841208471E+03  0.96618225919E+03  0.32547306345E+03 0.  0.
         13    1    3    3    0    0 -0.55046280091E+02 -0.49843557999E+00 -0.19634016746E+01  0.55083539611E+02  0.00000000000E+00 0.  1.
          3    1    3    3  501    0  0.83185388360E+02 -0.39138893640E+02 -0.90644868304E+03  0.91109871957E+03  0.00000000000E+00 0.  1.
         21    1    1    2  502  501 -0.28139108269E+02  0.39637329220E+02 -0.53281692852E+02  0.72123963251E+02  0.00000000000E+00 0.  1.
<mgrwt>
<rscale>  1 0.30000000E+03</rscale>
<asrwt>0</asrwt>
<pdfrwt beam="1">  1        1 0.13929565E+00 0.30000000E+03</pdfrwt>
<pdfrwt beam="2">0</pdfrwt>
<totfact> 0.20405231E+01</totfact>
</mgrwt>
</event>
<event>
 6    1  0.1940992E-004  0.3000000E+03  0.7818608E-02  0.1093470E+00
          1   -1    0    0  502    0  0.00000000000E+00  0.00000000000E+00  0.29594026535E+02  0.29594026535E+02  0.00000000000E+00 0.  1.
         13   -1    0    0    0    0 -0.00000000000E+00 -0.00000000000E+00 -0.10000000000E+04  0.10000000000E+04  0.00000000000E+00 0.  1.
    9000005    2    1    2  501    0  0.22529959685E+01 -0.10851183644E+02 -0.96519227327E+03  0.10173462983E+04  0.32136356684E+03 0.  0.
         13    1    3    3    0    0  0.11465378665E+03  0.57223078963E+02 -0.17837201969E+03  0.21962820622E+03  0.00000000000E+00 0.  1.
          1    1    3    3  501    0 -0.11240079068E+03 -0.68074262608E+02 -0.78682025358E+03  0.79771809208E+03  0.00000000000E+00 0.  1.
         21    1    1    2  502  501 -0.22529959685E+01  0.10851183644E+02 -0.52137001905E+01  0.12247728238E+02  0.00000000000E+00 0. -1.
<mgrwt>
<rscale>  1 0.30000000E+03</rscale>
<asrwt>0</asrwt>
<pdfrwt beam="1">  1        1 0.10761487E+00 0.30000000E+03</pdfrwt>
<pdfrwt beam="2">0</pdfrwt>
<totfact> 0.30705296E+01</totfact>
</mgrwt>
</event>
<event>
 6    1  0.1940992E-004  0.3000000E+03  0.7818608E-02  0.1093470E+00
          1   -1    0    0  502    0  0.00000000000E+00  0.00000000000E+00  0.45460997871E+02  0.45460997871E+02  0.00000000000E+00 0.  1.
         13   -1    0    0    0    0 -0.00000000000E+00 -0.00000000000E+00 -0.10000000000E+04  0.10000000000E+04  0.00000000000E+00 0.  1.
    9000005    2    1    2  501    0 -0.64185761611E+02 -0.33811185233E+02 -0.84876384002E+03  0.91719801350E+03  0.33998401669E+03 0.  0.
         13    1    3    3    0    0  0.22489378590E+02 -0.15936795058E+03 -0.63169174453E+03  0.65187297530E+03  0.00000000000E+00 0.  1.
          3    1    3    3  501    0 -0.86675140201E+02  0.12555676535E+03 -0.21707209549E+03  0.26532503820E+03  0.00000000000E+00 0.  1.
         21    1    1    2  502  501  0.64185761611E+02  0.33811185233E+02 -0.10577516211E+03  0.12826298437E+03  0.00000000000E+00 0. -1.
<mgrwt>
<rscale>  1 0.30000000E+03</rscale>
<asrwt>0</asrwt>
<pdfrwt beam="1">  1        1 0.16531307E+00 0.30000000E+03</pdfrwt>
<pdfrwt beam="2">0</pdfrwt>
<totfact> 0.15063752E+01</totfact>
</mgrwt>
</event>
<event>
 6    1  0.1940992E-004  0.3000000E+03  0.7818608E-02  0.1093470E+00
          1   -1    0    0  502    0  0.00000000000E+00  0.00000000000E+00  0.30816564104E+02  0.30816564104E+02  0.00000000000E+00 0.  1.
         13   -1    0    0    0    0 -0.00000000000E+00 -0.00000000000E+00 -0.10000000000E+04  0.10000000000E+04  0.00000000000E+00 0.  1.
    9000005    2    1    2  501    0 -0.47908596437E+00 -0.16634798481E+02 -0.94644677624E+03  0.10026403022E+04  0.33052856042E+03 0.  0.
         13    1    3    3    0    0 -0.15504981510E+03  0.47304895355E+02 -0.41712732074E+03  0.44751916160E+03  0.00000000000E+00 0.  1.
          1    1    3    3  501    0  0.15457072913E+03 -0.63939693836E+02 -0.52931945550E+03  0.55512114058E+03  0.00000000000E+00 0.  1.
         21    1    1    2  502  501  0.47908596437E+00  0.16634798481E+02 -0.22736659652E+02  0.28176261924E+02  0.00000000000E+00 0. -1.
<mgrwt>
<rscale>  1 0.30000000E+03</rscale>
<asrwt>0</asrwt>
<pdfrwt beam="1">  1        1 0.11206047E+00 0.30000000E+03</pdfrwt>
<pdfrwt beam="2">0</pdfrwt>
<totfact> 0.28886036E+01</totfact>
</mgrwt>
</event>
<event>
 6    1  0.1940992E-004  0.3000000E+03  0.7818608E-02  0.1093470E+00
          1   -1    0    0  502    0  0.00000000000E+00  0.00000000000E+00  0.39132867321E+02  0.39132867321E+02  0.00000000000E+00 0.  1.
         13   -1    0    0    0    0 -0.00000000000E+00 -0.00000000000E+00 -0.10000000000E+04  0.10000000000E+04  0.00000000000E+00 0.  1.
    9000005    2    1    2  501    0  0.80857559902E+01 -0.47723749283E+02 -0.86023913546E+03  0.92746850631E+03  0.34328344604E+03 0.  0.
         13    1    3    3    0    0  0.96774592807E+02  0.94462610951E+02 -0.61986577792E+03  0.63444628561E+03  0.00000000000E+00 0.  1.
          1    1    3    3  501    0 -0.88688836817E+02 -0.14218636023E+03 -0.24037335754E+03  0.29302222071E+03  0.00000000000E+00 0.  1.
         21    1    1    2  502  501 -0.80857559902E+01  0.47723749283E+02 -0.10062799722E+03  0.11166436101E+03  0.00000000000E+00 0. -1.
<mgrwt>
<rscale>  1 0.30000000E+03</rscale>
<asrwt>0</asrwt>
<pdfrwt beam="1">  1        1 0.14230164E+00 0.30000000E+03</pdfrwt>
<pdfrwt beam="2">0</pdfrwt>
<totfact> 0.19679775E+01</totfact>
</mgrwt>
</event>
<event>
 6    1  0.1940992E-004  0.3000000E+03  0.7818608E-02  0.1093470E+00
          1   -1    0    0  502    0  0.00000000000E+00  0.00000000000E+00  0.30549117813E+02  0.30549117813E+02  0.00000000000E+00 0.  1.
         13   -1    0    0    0    0 -0.00000000000E+00 -0.00000000000E+00 -0.10000000000E+04  0.10000000000E+04  0.00000000000E+00 0.  1.
    9000005    2    1    2  501    0  0.92352920528E+01  0.69240239696E+01 -0.95951094133E+03  0.10153164177E+04  0.33177243537E+03 0.  0.
         13    1    3    3    0    0  0.36696907143E+02 -0.14022188330E+03 -0.23977766225E+03  0.28018238143E+03  0.00000000000E+00 0.  1.
          1    1    3    3  501    0 -0.27461615090E+02  0.14714590727E+03 -0.71973327908E+03  0.73513403631E+03  0.00000000000E+00 0.  1.
         21    1    1    2  502  501 -0.92352920528E+01 -0.69240239696E+01 -0.99399408569E+01  0.15232700072E+02  0.00000000000E+00 0.  1.
<mgrwt>
<rscale>  1 0.30000000E+03</rscale>
<asrwt>0</asrwt>
<pdfrwt beam="1">  1        1 0.11108794E+00 0.30000000E+03</pdfrwt>
<pdfrwt beam="2">0</pdfrwt>
<totfact> 0.29270697E+01</totfact>
</mgrwt>
</event>
<event>
 6    1  0.1940992E-004  0.3000000E+03  0.7818608E-02  0.1093470E+00
          1   -1    0    0  502    0  0.00000000000E+00  0.00000000000E+00  0.25839088315E+02  0.25839088315E+02  0.00000000000E+00 0.  1.
         13   -1    0    0    0    0 -0.00000000000E+00 -0.00000000000E+00 -0.10000000000E+04  0.10000000000E+04  0.00000000000E+00 0.  1.
    9000005    2    1    2  501    0 -0.17541783708E+02  0.45976138365E+01 -0.94986005053E+03  0.99551774135E+03  0.29747706723E+03 0.  0.
         13    1    3    3    0    0  0.99467905719E+02 -0.83560052512E+02 -0.63623543448E+03  0.64936251411E+03  0.00000000000E+00 0.  1.
          1    1    3    3  501    0 -0.11700968943E+03  0.88157666349E+02 -0.31362461605E+03  0.34615522724E+03  0.00000000000E+00 0.  1.
         21    1    1    2  502  501  0.17541783708E+02 -0.45976138365E+01 -0.24300861155E+02  0.30321346960E+02  0.00000000000E+00 0.  1.
<mgrwt>
<rscale>  1 0.30000000E+03</rscale>
<asrwt>0</asrwt>
<pdfrwt beam="1">  1        1 0.93960519E-01 0.30000000E+03</pdfrwt>
<pdfrwt beam="2">0</pdfrwt>
<totfact> 0.37458820E+01</totfact>
</mgrwt>
</event>
<event>
 6    1  0.1940992E-004  0.3000000E+03  0.7818608E-02  0.1093470E+00
          1   -1    0    0  502    0  0.00000000000E+00  0.00000000000E+00  0.32926819836E+02  0.32926819836E+02  0.00000000000E+00 0.  1.
         13   -1    0    0    0    0 -0.00000000000E+00 -0.00000000000E+00 -0.10000000000E+04  0.10000000000E+04  0.00000000000E+00 0.  1.
    9000005    2    1    2  501    0  0.18451932735E+02 -0.22617395842E+02 -0.89475169202E+03  0.95493696112E+03  0.33237326744E+03 0.  0.
         13    1    3    3    0    0 -0.14674984375E+03 -0.13542937547E+02 -0.25883834505E+03  0.29785267611E+03  0.00000000000E+00 0.  1.
          3    1    3    3  501    0  0.16520177648E+03 -0.90744582951E+01 -0.63591334698E+03  0.65708428501E+03  0.00000000000E+00 0.  1.
         21    1    1    2  502  501 -0.18451932735E+02  0.22617395842E+02 -0.72321488139E+02  0.77989858719E+02  0.00000000000E+00 0.  1.
<mgrwt>
<rscale>  1 0.30000000E+03</rscale>
<asrwt>0</asrwt>
<pdfrwt beam="1">  1        1 0.11973414E+00 0.30000000E+03</pdfrwt>
<pdfrwt beam="2">0</pdfrwt>
<totfact> 0.26086209E+01</totfact>
</mgrwt>
</event>
<event>
 6    1  0.1940992E-004  0.3000000E+03  0.7818608E-02  0.1093470E+00
          1   -1    0    0  502    0  0.00000000000E+00  0.00000000000E+00  0.35146518809E+02  0.35146518809E+02  0.00000000000E+00 0.  1.
         13   -1    0    0    0    0 -0.00000000000E+00 -0.00000000000E+00 -0.10000000000E+04  0.10000000000E+04  0.00000000000E+00 0.  1.
    9000005    2    1    2  501    0  0.96560254173E+01 -0.17336183815E+02 -0.96266532252E+03  0.10151822974E+04  0.32167808719E+03 0.  0.
         13    1    3    3    0    0 -0.64452285383E+01 -0.15506140313E+03 -0.71202289818E+03  0.72874013698E+03  0.00000000000E+00 0.  1.
          3    1    3    3  501    0  0.16101253956E+02  0.13772521932E+03 -0.25064242434E+03  0.28644216047E+03  0.00000000000E+00 0.  1.
         21    1    1    2  502  501 -0.96560254173E+01  0.17336183815E+02 -0.21881586712E+01  0.19964221360E+02  0.00000000000E+00 0.  1.
<mgrwt>
<rscale>  1 0.30000000E+03</rscale>
<asrwt>0</asrwt>
<pdfrwt beam="1">  1        1 0.12780579E+00 0.30000000E+03</pdfrwt>
<pdfrwt beam="2">0</pdfrwt>
<totfact> 0.23520565E+01</totfact>
</mgrwt>
</event>
<event>
 6    1  0.1940992E-004  0.3000000E+03  0.7818608E-02  0.1093470E+00
          1   -1    0    0  502    0  0.00000000000E+00  0.00000000000E+00  0.37555399401E+02  0.37555399401E+02  0.00000000000E+00 0.  1.
         13   -1    0    0    0    0 -0.00000000000E+00 -0.00000000000E+00 -0.10000000000E+04  0.10000000000E+04  0.00000000000E+00 0.  1.
    9000005    2    1    2  501    0  0.39687687759E+01 -0.14575146504E+02 -0.96139142747E+03  0.10224129031E+04  0.34760103790E+03 0.  0.
         13    1    3    3    0    0 -0.43913627823E+02 -0.43800809677E+02 -0.96425047139E+03  0.96624318326E+03  0.00000000000E+00 0.  1.
          1    1    3    3  501    0  0.47882396599E+02  0.29225663173E+02  0.28590439171E+01  0.56169719815E+02  0.00000000000E+00 0.  1.
         21    1    1    2  502  501 -0.39687687759E+01  0.14575146504E+02 -0.10531731304E+01  0.15142496322E+02  0.00000000000E+00 0. -1.
<mgrwt>
<rscale>  1 0.30000000E+03</rscale>
<asrwt>0</asrwt>
<pdfrwt beam="1">  1        1 0.13656538E+00 0.30000000E+03</pdfrwt>
<pdfrwt beam="2">0</pdfrwt>
<totfact> 0.21093965E+01</totfact>
</mgrwt>
</event>
<event>
 6    1  0.1940992E-004  0.3000000E+03  0.7818608E-02  0.1093470E+00
          1   -1    0    0  502    0  0.00000000000E+00  0.00000000000E+00  0.29019786146E+02  0.29019786146E+02  0.00000000000E+00 0.  1.
         13   -1    0    0    0    0 -0.00000000000E+00 -0.00000000000E+00 -0.10000000000E+04  0.10000000000E+04  0.00000000000E+00 0.  1.
    9000005    2    1    2  501    0  0.83589355653E+01  0.80452515173E+01 -0.95482573960E+03  0.10091309724E+04  0.32637176422E+03 0.  0.
         13    1    3    3    0    0 -0.12989516638E+03 -0.87830715724E+02 -0.50952480759E+03  0.53310647945E+03  0.00000000000E+00 0.  1.
          3    1    3    3  501    0  0.13825410194E+03  0.95875967241E+02 -0.44530093201E+03  0.47602449291E+03  0.00000000000E+00 0.  1.
         21    1    1    2  502  501 -0.83589355653E+01 -0.80452515173E+01 -0.16154474252E+02  0.19888813794E+02  0.00000000000E+00 0.  1.
<mgrwt>
<rscale>  1 0.30000000E+03</rscale>
<asrwt>0</asrwt>
<pdfrwt beam="1">  1        1 0.10552672E+00 0.30000000E+03</pdfrwt>
<pdfrwt beam="2">0</pdfrwt>
<totfact> 0.31616685E+01</totfact>
</mgrwt>
</event>
<event>
 6    1  0.1940992E-004  0.3000000E+03  0.7818608E-02  0.1093470E+00
          1   -1    0    0  502    0  0.00000000000E+00  0.00000000000E+00  0.44381583313E+02  0.44381583313E+02  0.00000000000E+00 0.  1.
         13   -1    0    0    0    0 -0.00000000000E+00 -0.00000000000E+00 -0.10000000000E+04  0.10000000000E+04  0.00000000000E+00 0.  1.
    9000005    2    1    2  501    0 -0.24258240705E+02  0.12761597066E+02 -0.95894977036E+03  0.10167696562E+04  0.33687468156E+03 0.  0.
         13    1    3    3    0    0  0.14551179269E+03  0.66371391419E+02 -0.45942571121E+03  0.48646770451E+03  0.00000000000E+00 0.  1.
          3    1    3    3  501    0 -0.16977003339E+03 -0.53609794353E+02 -0.49952405915E+03  0.53030195169E+03  0.00000000000E+00 0.  1.
         21    1    1    2  502  501  0.24258240705E+02 -0.12761597066E+02  0.33313536766E+01  0.27611927117E+02  0.00000000000E+00 0.  1.
<mgrwt>
<rscale>  1 0.30000000E+03</rscale>
<asrwt>0</asrwt>
<pdfrwt beam="1">  1        1 0.16138792E+00 0.30000000E+03</pdfrwt>
<pdfrwt beam="2">0</pdfrwt>
<totfact> 0.15751309E+01</totfact>
</mgrwt>
</event>
<event>
 6    1  0.1940992E-004  0.3000000E+03  0.7818608E-02  0.1093470E+00
          1   -1    0    0  502    0  0.00000000000E+00  0.00000000000E+00  0.32278244436E+02  0.32278244436E+02  0.00000000000E+00 0.  1.
         13   -1    0    0    0    0 -0.00000000000E+00 -0.00000000000E+00 -0.10000000000E+04  0.10000000000E+04  0.00000000000E+00 0.  1.
    9000005    2    1    2  501    0  0.94740013401E+01 -0.87283192753E+01 -0.95443670816E+03  0.10137733061E+04  0.34149809077E+03 0.  0.
         13    1    3    3    0    0  0.57271066940E+02 -0.10027446184E+03 -0.98940646040E+02  0.15206641393E+03  0.00000000000E+00 0.  1.
          3    1    3    3  501    0 -0.47797065600E+02  0.91546142564E+02 -0.85549606212E+03  0.86170689216E+03  0.00000000000E+00 0.  1.
         21    1    1    2  502  501 -0.94740013401E+01  0.87283192753E+01 -0.13285047408E+02  0.18504938352E+02  0.00000000000E+00 0.  1.
<mgrwt>
<rscale>  1 0.30000000E+03</rscale>
<asrwt>0</asrwt>
<pdfrwt beam="1">  1        1 0.11737568E+00 0.30000000E+03</pdfrwt>
<pdfrwt beam="2">0</pdfrwt>
<totfact> 0.26905122E+01</totfact>
</mgrwt>
</event>
<event>
 6    1  0.1940992E-004  0.3000000E+03  0.7818608E-02  0.1093470E+00
          1   -1    0    0  502    0  0.00000000000E+00  0.00000000000E+00  0.28884725722E+02  0.28884725722E+02  0.00000000000E+00 0.  1.
         13   -1    0    0    0    0 -0.00000000000E+00 -0.00000000000E+00 -0.10000000000E+04  0.10000000000E+04  0.00000000000E+00 0.  1.
    9000005    2    1    2  501    0  0.11296766735E+02  0.17420616318E+02 -0.94068377571E+03  0.99204492501E+03  0.31438204868E+03 0.  0.
         13    1    3    3    0    0 -0.13386313543E+02  0.76206109159E+02 -0.36384518172E+02  0.85500863306E+02  0.00000000000E+00 0.  1.
          1    1    3    3  501    0  0.24683080278E+02 -0.58785492841E+02 -0.90429925754E+03  0.90654406170E+03  0.00000000000E+00 0.  1.
         21    1    1    2  502  501 -0.11296766735E+02 -0.17420616318E+02 -0.30431498565E+02  0.36839800712E+02  0.00000000000E+00 0.  1.
<mgrwt>
<rscale>  1 0.30000000E+03</rscale>
<asrwt>0</asrwt>
<pdfrwt beam="1">  1        1 0.10503559E+00 0.30000000E+03</pdfrwt>
<pdfrwt beam="2">0</pdfrwt>
<totfact> 0.31836699E+01</totfact>
</mgrwt>
</event>
<event>
 6    1  0.1940992E-004  0.3000000E+03  0.7818608E-02  0.1093470E+00
          1   -1    0    0  502    0  0.00000000000E+00  0.00000000000E+00  0.30046418506E+02  0.30046418506E+02  0.00000000000E+00 0.  1.
         13   -1    0    0    0    0 -0.00000000000E+00 -0.00000000000E+00 -0.10000000000E+04  0.10000000000E+04  0.00000000000E+00 0.  1.
    9000005    2    1    2  501    0  0.14544228238E+02 -0.10335821840E+02 -0.95198471478E+03  0.10047236233E+04  0.32074335249E+03 0.  0.
         13    1    3    3    0    0  0.62158836880E+02 -0.13962074642E+03 -0.28231891714E+03  0.32103215541E+03  0.00000000000E+00 0.  1.
          1    1    3    3  501    0 -0.47614608642E+02  0.12928492458E+03 -0.66966579765E+03  0.68369146785E+03  0.00000000000E+00 0.  1.
         21    1    1    2  502  501 -0.14544228238E+02  0.10335821840E+02 -0.17968866711E+02  0.25322795245E+02  0.00000000000E+00 0. -1.
<mgrwt>
<rscale>  1 0.30000000E+03</rscale>
<asrwt>0</asrwt>
<pdfrwt beam="1">  1        1 0.10925993E+00 0.30000000E+03</pdfrwt>
<pdfrwt beam="2">0</pdfrwt>
<totfact> 0.30013590E+01</totfact>
</mgrwt>
</event>
<event>
 6    1  0.1940992E-004  0.3000000E+03  0.7818608E-02  0.1093470E+00
          1   -1    0    0  502    0  0.00000000000E+00  0.00000000000E+00  0.28646893181E+02  0.28646893181E+02  0.00000000000E+00 0.  1.
         13   -1    0    0    0    0 -0.00000000000E+00 -0.00000000000E+00 -0.10000000000E+04  0.10000000000E+04  0.00000000000E+00 0.  1.
    9000005    2    1    2  501    0 -0.86303617169E+01 -0.53749593015E+01 -0.96330414341E+03  0.10156792742E+04  0.32178586348E+03 0.  0.
         13    1    3    3    0    0 -0.49530725451E+02 -0.14651659927E+03 -0.31488603339E+03  0.35081850101E+03  0.00000000000E+00 0.  1.
          1    1    3    3  501    0  0.40900363734E+02  0.14114163997E+03 -0.64841811002E+03  0.66486077316E+03  0.00000000000E+00 0.  1.
         21    1    1    2  502  501  0.86303617169E+01  0.53749593015E+01 -0.80489634091E+01  0.12967619011E+02  0.00000000000E+00 0. -1.
<mgrwt>
<rscale>  1 0.30000000E+03</rscale>
<asrwt>0</asrwt>
<pdfrwt beam="1">  1        1 0.10417074E+00 0.30000000E+03</pdfrwt>
<pdfrwt beam="2">0</pdfrwt>
<totfact> 0.32229551E+01</totfact>
</mgrwt>
</event>
<event>
 6    1  0.1940992E-004  0.3000000E+03  0.7818608E-02  0.1093470E+00
          1   -1    0    0  502    0  0.00000000000E+00  0.00000000000E+00  0.46942499945E+02  0.46942499945E+02  0.00000000000E+00 0.  1.
         13   -1    0    0    0    0 -0.00000000000E+00 -0.00000000000E+00 -0.10000000000E+04  0.10000000000E+04  0.00000000000E+00 0.  1.
    9000005    2    1    2  501    0 -0.76416992535E+01 -0.44589798958E+02 -0.93776569559E+03  0.99918807583E+03  0.34194395055E+03 0.  0.
         13    1    3    3    0    0 -0.89352585600E+02  0.36781037460E+02 -0.84684457151E+03  0.85233940280E+03  0.00000000000E+00 0.  1.
          1    1    3    3  501    0  0.81710886346E+02 -0.81370836418E+02 -0.90921124079E+02  0.14684867303E+03  0.00000000000E+00 0.  1.
         21    1    1    2  502  501  0.76416992535E+01  0.44589798958E+02 -0.15291804464E+02  0.47754424113E+02  0.00000000000E+00 0.  1.
<mgrwt>
<rscale>  1 0.30000000E+03</rscale>
<asrwt>0</asrwt>
<pdfrwt beam="1">  1        1 0.17070036E+00 0.30000000E+03</pdfrwt>
<pdfrwt beam="2">0</pdfrwt>
<totfact> 0.14175083E+01</totfact>
</mgrwt>
</event>
<event>
 6    1  0.1940992E-004  0.3000000E+03  0.7818608E-02  0.1093470E+00
          1   -1    0    0  502    0  0.00000000000E+00  0.00000000000E+00  0.37616447940E+02  0.37616447940E+02  0.00000000000E+00 0.  1.
         13   -1    0    0    0    0 -0.00000000000E+00 -0.00000000000E+00 -0.10000000000E+04  0.10000000000E+04  0.00000000000E+00 0.  1.
    9000005    2    1    2  501    0  0.26792810925E+02 -0.52247599677E+02 -0.80686792826E+03  0.87138535688E+03  0.32377294535E+03 0.  0.
         13    1    3    3    0    0  0.15863630970E+03 -0.10129020249E+03 -0.44788765797E+03  0.48582768348E+03  0.00000000000E+00 0.  1.
          1    1    3    3  501    0 -0.13184349877E+03  0.49042602817E+02 -0.35898027029E+03  0.38555767340E+03  0.00000000000E+00 0.  1.
         21    1    1    2  502  501 -0.26792810925E+02  0.52247599677E+02 -0.15551562380E+03  0.16623109106E+03  0.00000000000E+00 0.  1.
<mgrwt>
<rscale>  1 0.30000000E+03</rscale>
<asrwt>0</asrwt>
<pdfrwt beam="1">  1        1 0.13678737E+00 0.30000000E+03</pdfrwt>
<pdfrwt beam="2">0</pdfrwt>
<totfact> 0.21036863E+01</totfact>
</mgrwt>
</event>
<event>
 6    1  0.1940992E-004  0.3000000E+03  0.7818608E-02  0.1093470E+00
          1   -1    0    0  502    0  0.00000000000E+00  0.00000000000E+00  0.36745235448E+02  0.36745235448E+02  0.00000000000E+00 0.  1.
         13   -1    0    0    0    0 -0.00000000000E+00 -0.00000000000E+00 -0.10000000000E+04  0.10000000000E+04  0.00000000000E+00 0.  1.
    9000005    2    1    2  501    0 -0.41075529441E+02 -0.80023743771E+01 -0.91881396607E+03  0.97570244977E+03  0.32561469425E+03 0.  0.
         13    1    3    3    0    0  0.12958878691E+03  0.61978168463E+02 -0.41883053945E+03  0.44277936699E+03  0.00000000000E+00 0.  1.
          1    1    3    3  501    0 -0.17066431635E+03 -0.69980542840E+02 -0.49998342662E+03  0.53292308277E+03  0.00000000000E+00 0.  1.
         21    1    1    2  502  501  0.41075529441E+02  0.80023743771E+01 -0.44440798478E+02  0.61042785682E+02  0.00000000000E+00 0.  1.
<mgrwt>
<rscale>  1 0.30000000E+03</rscale>
<asrwt>0</asrwt>
<pdfrwt beam="1">  1        1 0.13361932E+00 0.30000000E+03</pdfrwt>
<pdfrwt beam="2">0</pdfrwt>
<totfact> 0.21871645E+01</totfact>
</mgrwt>
</event>
<event>
 6    1  0.1940992E-004  0.3000000E+03  0.7818608E-02  0.1093470E+00
          1   -1    0    0  502    0  0.00000000000E+00  0.00000000000E+00  0.50209465558E+02  0.50209465558E+02  0.00000000000E+00 0.  1.
         13   -1    0    0    0    0 -0.00000000000E+00 -0.00000000000E+00 -0.10000000000E+04  0.10000000000E+04  0.00000000000E+00 0.  1.
    9000005    2    1    2  501    0  0.41114986674E+02  0.88580670000E+02 -0.82963072799E+03  0.89536968929E+03  0.32227745571E+03 0.  0.
         13    1    3    3    0    0 -0.12200271311E+02 -0.62071278456E+02 -0.14735519320E+02  0.64952488474E+02  0.00000000000E+00 0.  1.
          1    1    3    3  501    0  0.53315257985E+02  0.15065194846E+03 -0.81489520867E+03  0.83041720082E+03  0.00000000000E+00 0.  1.
         21    1    1    2  502  501 -0.41114986674E+02 -0.88580670000E+02 -0.12015980645E+03  0.15483977626E+03  0.00000000000E+00 0.  1.
<mgrwt>
<rscale>  1 0.30000000E+03</rscale>
<asrwt>0</asrwt>
<pdfrwt beam="1">  1        1 0.18258026E+00 0.30000000E+03</pdfrwt>
<pdfrwt beam="2">0</pdfrwt>
<totfact> 0.12413066E+01</totfact>
</mgrwt>
</event>
<event>
 6    1  0.1940992E-004  0.3000000E+03  0.7818608E-02  0.1093470E+00
          1   -1    0    0  502    0  0.00000000000E+00  0.00000000000E+00  0.35080827595E+02  0.35080827595E+02  0.00000000000E+00 0.  1.
         13   -1    0    0    0    0 -0.00000000000E+00 -0.00000000000E+00 -0.10000000000E+04  0.10000000000E+04  0.00000000000E+00 0.  1.
    9000005    2    1    2  501    0  0.12041644923E+02  0.18520298276E+02 -0.96034616544E+03  0.10125216819E+04  0.32007404805E+03 0.  0.
         13    1    3    3    0    0 -0.14195870817E+03  0.21334979586E+02 -0.27649994860E+03  0.31154402217E+03  0.00000000000E+00 0.  1.
          1    1    3    3  501    0  0.15400035309E+03 -0.28146813099E+01 -0.68384621684E+03  0.70097765975E+03  0.00000000000E+00 0.  1.
         21    1    1    2  502  501 -0.12041644923E+02 -0.18520298276E+02 -0.45730069683E+01  0.22559145672E+02  0.00000000000E+00 0.  1.
<mgrwt>
<rscale>  1 0.30000000E+03</rscale>
<asrwt>0</asrwt>
<pdfrwt beam="1">  1        1 0.12756691E+00 0.30000000E+03</pdfrwt>
<pdfrwt beam="2">0</pdfrwt>
<totfact> 0.23591716E+01</totfact>
</mgrwt>
</event>
<event>
 6    1  0.1940992E-004  0.3000000E+03  0.7818608E-02  0.1093470E+00
          1   -1    0    0  502    0  0.00000000000E+00  0.00000000000E+00  0.37581207272E+02  0.37581207272E+02  0.00000000000E+00 0.  1.
         13   -1    0    0    0    0 -0.00000000000E+00 -0.00000000000E+00 -0.10000000000E+04  0.10000000000E+04  0.00000000000E+00 0.  1.
    9000005    2    1    2  501    0  0.16057617928E+02  0.49468362631E+02 -0.89169183314E+03  0.94979015529E+03  0.32292731041E+03 0.  0.
         13    1    3    3    0    0  0.15924112601E+03 -0.29815480706E+02 -0.48766522392E+03  0.51387164713E+03  0.00000000000E+00 0.  1.
          3    1    3    3  501    0 -0.14318350809E+03  0.79283843336E+02 -0.40402660921E+03  0.43591850816E+03  0.00000000000E+00 0.  1.
         21    1    1    2  502  501 -0.16057617928E+02 -0.49468362631E+02 -0.70726959591E+02  0.87791051980E+02  0.00000000000E+00 0. -1.
<mgrwt>
<rscale>  1 0.30000000E+03</rscale>
<asrwt>0</asrwt>
<pdfrwt beam="1">  1        1 0.13665922E+00 0.30000000E+03</pdfrwt>
<pdfrwt beam="2">0</pdfrwt>
<totfact> 0.21069801E+01</totfact>
</mgrwt>
</event>
<event>
 6    1  0.1940992E-004  0.3000000E+03  0.7818608E-02  0.1093470E+00
          1   -1    0    0  502    0  0.00000000000E+00  0.00000000000E+00  0.36832442868E+02  0.36832442868E+02  0.00000000000E+00 0.  1.
         13   -1    0    0    0    0 -0.00000000000E+00 -0.00000000000E+00 -0.10000000000E+04  0.10000000000E+04  0.00000000000E+00 0.  1.
    9000005    2    1    2  501    0 -0.48828935645E+02 -0.41356657403E+00 -0.90959340655E+03  0.96434364647E+03  0.31656605510E+03 0.  0.
         13    1    3    3    0    0 -0.10787390942E+03  0.10915689792E+03 -0.72922130052E+03  0.74519508441E+03  0.00000000000E+00 0.  1.
          3    1    3    3  501    0  0.59044973772E+02 -0.10957046449E+03 -0.18037210603E+03  0.21914856205E+03  0.00000000000E+00 0.  1.
         21    1    1    2  502  501  0.48828935645E+02  0.41356657403E+00 -0.53574150580E+02  0.72488796403E+02  0.00000000000E+00 0.  1.
<mgrwt>
<rscale>  1 0.30000000E+03</rscale>
<asrwt>0</asrwt>
<pdfrwt beam="1">  1        1 0.13393644E+00 0.30000000E+03</pdfrwt>
<pdfrwt beam="2">0</pdfrwt>
<totfact> 0.21786121E+01</totfact>
</mgrwt>
</event>
<event>
 6    1  0.1940992E-004  0.3000000E+03  0.7818608E-02  0.1093470E+00
          1   -1    0    0  502    0  0.00000000000E+00  0.00000000000E+00  0.27534089346E+02  0.27534089346E+02  0.00000000000E+00 0.  1.
         13   -1    0    0    0    0 -0.00000000000E+00 -0.00000000000E+00 -0.10000000000E+04  0.10000000000E+04  0.00000000000E+00 0.  1.
    9000005    2    1    2  501    0 -0.41023790714E+01  0.12533126775E+02 -0.93783152005E+03  0.99047400579E+03  0.31833455258E+03 0.  0.
         13    1    3    3    0    0  0.40268607489E+02 -0.12665346403E+03 -0.69088839706E+03  0.70355485777E+03  0.00000000000E+00 0.  1.
          1    1    3    3  501    0 -0.44370986560E+02  0.13918659080E+03 -0.24694312299E+03  0.28691914802E+03  0.00000000000E+00 0.  1.
         21    1    1    2  502  501  0.41023790714E+01 -0.12533126775E+02 -0.34634390606E+02  0.37060083560E+02  0.00000000000E+00 0.  1.
<mgrwt>
<rscale>  1 0.30000000E+03</rscale>
<asrwt>0</asrwt>
<pdfrwt beam="1">  1        1 0.10012417E+00 0.30000000E+03</pdfrwt>
<pdfrwt beam="2">0</pdfrwt>
<totfact> 0.34164892E+01</totfact>
</mgrwt>
</event>
<event>
 6    1  0.1940992E-004  0.3000000E+03  0.7818608E-02  0.1093470E+00
          3   -1    0    0  502    0  0.00000000000E+00  0.00000000000E+00  0.31454978049E+02  0.31454978049E+02  0.00000000000E+00 0.  1.
         13   -1    0    0    0    0 -0.00000000000E+00 -0.00000000000E+00 -0.10000000000E+04  0.10000000000E+04  0.00000000000E+00 0.  1.
    9000005    2    1    2  501    0  0.27118373603E+02 -0.95352311070E+01 -0.91704569372E+03  0.97247610363E+03  0.32235173483E+03 0.  0.
         13    1    3    3    0    0 -0.52853809519E+02 -0.12504657270E+03 -0.70606414937E+03  0.71899704697E+03  0.00000000000E+00 0.  1.
          3    1    3    3  501    0  0.79972183122E+02  0.11551134160E+03 -0.21098154435E+03  0.25347905667E+03  0.00000000000E+00 0.  1.
         21    1    1    2  502  501 -0.27118373603E+02  0.95352311070E+01 -0.51499328232E+02  0.58978874417E+02  0.00000000000E+00 0. -1.
<mgrwt>
<rscale>  1 0.30000000E+03</rscale>
<asrwt>0</asrwt>
<pdfrwt beam="1">  1        3 0.11438198E+00 0.30000000E+03</pdfrwt>
<pdfrwt beam="2">0</pdfrwt>
<totfact> 0.26854317E+00</totfact>
</mgrwt>
</event>
<event>
 6    1  0.1940992E-004  0.3000000E+03  0.7818608E-02  0.1093470E+00
          1   -1    0    0  502    0  0.00000000000E+00  0.00000000000E+00  0.29488338316E+02  0.29488338316E+02  0.00000000000E+00 0.  1.
         13   -1    0    0    0    0 -0.00000000000E+00 -0.00000000000E+00 -0.10000000000E+04  0.10000000000E+04  0.00000000000E+00 0.  1.
    9000005    2    1    2  501    0 -0.54736864364E+01  0.15704733678E+02 -0.88307527761E+03  0.94048428693E+03  0.32312868664E+03 0.  0.
         13    1    3    3    0    0  0.23633414280E+02  0.14557763108E+03 -0.22460976369E+03  0.26870230905E+03  0.00000000000E+00 0.  1.
          1    1    3    3  501    0 -0.29107100717E+02 -0.12987289740E+03 -0.65846551392E+03  0.67178197788E+03  0.00000000000E+00 0.  1.
         21    1    1    2  502  501  0.54736864364E+01 -0.15704733678E+02 -0.87436384074E+02  0.89004051386E+02  0.00000000000E+00 0. -1.
<mgrwt>
<rscale>  1 0.30000000E+03</rscale>
<asrwt>0</asrwt>
<pdfrwt beam="1">  1        1 0.10723055E+00 0.30000000E+03</pdfrwt>
<pdfrwt beam="2">0</pdfrwt>
<totfact> 0.30870176E+01</totfact>
</mgrwt>
</event>
<event>
 6    1  0.1940992E-004  0.3000000E+03  0.7818608E-02  0.1093470E+00
          1   -1    0    0  502    0  0.00000000000E+00  0.00000000000E+00  0.30110856360E+02  0.30110856360E+02  0.00000000000E+00 0.  1.
         13   -1    0    0    0    0 -0.00000000000E+00 -0.00000000000E+00 -0.10000000000E+04  0.10000000000E+04  0.00000000000E+00 0.  1.
    9000005    2    1    2  501    0  0.18522754715E+02  0.70760857533E+01 -0.92175004063E+03  0.97804804170E+03  0.32643785172E+03 0.  0.
         13    1    3    3    0    0  0.39801831765E+02  0.16116218938E+03 -0.38620679049E+03  0.42037259915E+03  0.00000000000E+00 0.  1.
          3    1    3    3  501    0 -0.21279077050E+02 -0.15408610362E+03 -0.53554325014E+03  0.55767544255E+03  0.00000000000E+00 0.  1.
         21    1    1    2  502  501 -0.18522754715E+02 -0.70760857533E+01 -0.48139103005E+02  0.52062814657E+02  0.00000000000E+00 0.  1.
<mgrwt>
<rscale>  1 0.30000000E+03</rscale>
<asrwt>0</asrwt>
<pdfrwt beam="1">  1        1 0.10949425E+00 0.30000000E+03</pdfrwt>
<pdfrwt beam="2">0</pdfrwt>
<totfact> 0.29916877E+01</totfact>
</mgrwt>
</event>
<event>
 6    1  0.1940992E-004  0.3000000E+03  0.7818608E-02  0.1093470E+00
          1   -1    0    0  502    0  0.00000000000E+00  0.00000000000E+00  0.30009363637E+02  0.30009363637E+02  0.00000000000E+00 0.  1.
         13   -1    0    0    0    0 -0.00000000000E+00 -0.00000000000E+00 -0.10000000000E+04  0.10000000000E+04  0.00000000000E+00 0.  1.
    9000005    2    1    2  501    0 -0.80244886087E+00  0.18084935720E+02 -0.95144357185E+03  0.10040921411E+04  0.32035675191E+03 0.  0.
         13    1    3    3    0    0 -0.70428059145E+02 -0.13261523633E+03 -0.36701365099E+03  0.39654247242E+03  0.00000000000E+00 0.  1.
          1    1    3    3  501    0  0.69625610284E+02  0.15070017205E+03 -0.58442992086E+03  0.60754966863E+03  0.00000000000E+00 0.  1.
         21    1    1    2  502  501  0.80244886087E+00 -0.18084935720E+02 -0.18547064513E+02  0.25917222580E+02  0.00000000000E+00 0.  1.
<mgrwt>
<rscale>  1 0.30000000E+03</rscale>
<asrwt>0</asrwt>
<pdfrwt beam="1">  1        1 0.10912519E+00 0.30000000E+03</pdfrwt>
<pdfrwt beam="2">0</pdfrwt>
<totfact> 0.30069406E+01</totfact>
</mgrwt>
</event>
<event>
 6    1  0.1940992E-004  0.3000000E+03  0.7818608E-02  0.1093470E+00
          1   -1    0    0  502    0  0.00000000000E+00  0.00000000000E+00  0.36760982011E+02  0.36760982011E+02  0.00000000000E+00 0.  1.
         13   -1    0    0    0    0 -0.00000000000E+00 -0.00000000000E+00 -0.10000000000E+04  0.10000000000E+04  0.00000000000E+00 0.  1.
    9000005    2    1    2  501    0 -0.22964628751E+02  0.72367952211E+00 -0.94998241989E+03  0.10102348575E+04  0.34289936049E+03 0.  0.
         13    1    3    3    0    0  0.58989926565E+01 -0.93067681007E+02 -0.89073695680E+03  0.89560522418E+03  0.00000000000E+00 0.  1.
          1    1    3    3  501    0 -0.28863621408E+02  0.93791360529E+02 -0.59245463088E+02  0.11462963337E+03  0.00000000000E+00 0.  1.
         21    1    1    2  502  501  0.22964628751E+02 -0.72367952211E+00 -0.13256598101E+02  0.26526124461E+02  0.00000000000E+00 0.  1.
<mgrwt>
<rscale>  1 0.30000000E+03</rscale>
<asrwt>0</asrwt>
<pdfrwt beam="1">  1        1 0.13367658E+00 0.30000000E+03</pdfrwt>
<pdfrwt beam="2">0</pdfrwt>
<totfact> 0.21856169E+01</totfact>
</mgrwt>
</event>
<event>
 6    1  0.1940992E-004  0.3000000E+03  0.7818608E-02  0.1093470E+00
          1   -1    0    0  502    0  0.00000000000E+00  0.00000000000E+00  0.49074680268E+02  0.49074680268E+02  0.00000000000E+00 0.  1.
         13   -1    0    0    0    0 -0.00000000000E+00 -0.00000000000E+00 -0.10000000000E+04  0.10000000000E+04  0.00000000000E+00 0.  1.
    9000005    2    1    2  501    0  0.51857682130E+02 -0.16905803879E+01 -0.93976546388E+03  0.99600284555E+03  0.32583809473E+03 0.  0.
         13    1    3    3    0    0 -0.48787702450E+02 -0.23819161206E+02 -0.86969344429E+03  0.87138641222E+03  0.00000000000E+00 0.  1.
          1    1    3    3  501    0  0.10064538458E+03  0.22128580818E+02 -0.70072019588E+02  0.12461643333E+03  0.00000000000E+00 0.  1.
         21    1    1    2  502  501 -0.51857682130E+02  0.16905803879E+01 -0.11159855850E+02  0.53071834720E+02  0.00000000000E+00 0. -1.
<mgrwt>
<rscale>  1 0.30000000E+03</rscale>
<asrwt>0</asrwt>
<pdfrwt beam="1">  1        1 0.17845376E+00 0.30000000E+03</pdfrwt>
<pdfrwt beam="2">0</pdfrwt>
<totfact> 0.12996521E+01</totfact>
</mgrwt>
</event>
<event>
 6    1  0.1940992E-004  0.3000000E+03  0.7818608E-02  0.1093470E+00
          1   -1    0    0  502    0  0.00000000000E+00  0.00000000000E+00  0.29732578434E+02  0.29732578434E+02  0.00000000000E+00 0.  1.
         13   -1    0    0    0    0 -0.00000000000E+00 -0.00000000000E+00 -0.10000000000E+04  0.10000000000E+04  0.00000000000E+00 0.  1.
    9000005    2    1    2  501    0 -0.96897030763E+01  0.49644127634E+01 -0.97250608058E+03  0.10186173936E+04  0.30281146283E+03 0.  0.
         13    1    3    3    0    0  0.13850021555E+03  0.30778486694E+02 -0.33888971174E+03  0.36739061185E+03  0.00000000000E+00 0.  1.
          3    1    3    3  501    0 -0.14818991863E+03 -0.25814073931E+02 -0.63361636885E+03  0.65122678175E+03  0.00000000000E+00 0.  1.
         21    1    1    2  502  501  0.96897030763E+01 -0.49644127634E+01  0.22386590183E+01  0.11115184838E+02  0.00000000000E+00 0. -1.
<mgrwt>
<rscale>  1 0.30000000E+03</rscale>
<asrwt>0</asrwt>
<pdfrwt beam="1">  1        1 0.10811870E+00 0.30000000E+03</pdfrwt>
<pdfrwt beam="2">0</pdfrwt>
<totfact> 0.30491052E+01</totfact>
</mgrwt>
</event>
<event>
 6    1  0.1940992E-004  0.3000000E+03  0.7818608E-02  0.1093470E+00
          1   -1    0    0  502    0  0.00000000000E+00  0.00000000000E+00  0.42941943837E+02  0.42941943837E+02  0.00000000000E+00 0.  1.
         13   -1    0    0    0    0 -0.00000000000E+00 -0.00000000000E+00 -0.10000000000E+04  0.10000000000E+04  0.00000000000E+00 0.  1.
    9000005    2    1    2  501    0 -0.22467547295E+02  0.11953590959E+02 -0.96616410685E+03  0.10159123457E+04  0.31298104365E+03 0.  0.
         13    1    3    3    0    0  0.83270011287E+02  0.97797871572E+02 -0.74636489423E+03  0.75733669778E+03  0.00000000000E+00 0.  1.
          3    1    3    3  501    0 -0.10573755858E+03 -0.85844280613E+02 -0.21979921262E+03  0.25857564788E+03  0.00000000000E+00 0.  1.
         21    1    1    2  502  501  0.22467547295E+02 -0.11953590959E+02  0.91060506903E+01  0.27029598174E+02  0.00000000000E+00 0.  1.
<mgrwt>
<rscale>  1 0.30000000E+03</rscale>
<asrwt>0</asrwt>
<pdfrwt beam="1">  1        1 0.15615285E+00 0.30000000E+03</pdfrwt>
<pdfrwt beam="2">0</pdfrwt>
<totfact> 0.16725848E+01</totfact>
</mgrwt>
</event>
<event>
 6    1  0.1940992E-004  0.3000000E+03  0.7818608E-02  0.1093470E+00
          1   -1    0    0  502    0  0.00000000000E+00  0.00000000000E+00  0.98675141821E+01  0.98675141821E+01  0.00000000000E+00 0.  1.
         13   -1    0    0    0    0 -0.00000000000E+00 -0.00000000000E+00 -0.10000000000E+04  0.10000000000E+04  0.00000000000E+00 0.  1.
    9000005    2    1    2  501    0  0.11185832340E+02  0.34365654623E-01 -0.98241637683E+03  0.99627846109E+03  0.16523834463E+03 0.  0.
         13    1    3    3    0    0  0.67630934777E+02  0.29244230246E+02 -0.23777899126E+03  0.24893376032E+03  0.00000000000E+00 0.  1.
          1    1    3    3  501    0 -0.56445102437E+02 -0.29209864592E+02 -0.74463738556E+03  0.74734470076E+03  0.00000000000E+00 0.  1.
         21    1    1    2  502  501 -0.11185832340E+02 -0.34365654623E-01 -0.77161089896E+01  0.13589053097E+02  0.00000000000E+00 0.  1.
<mgrwt>
<rscale>  1 0.30000000E+03</rscale>
<asrwt>0</asrwt>
<pdfrwt beam="1">  1        1 0.35881945E-01 0.30000000E+03</pdfrwt>
<pdfrwt beam="2">0</pdfrwt>
<totfact> 0.13622048E+02</totfact>
</mgrwt>
</event>
<event>
 6    1  0.1940992E-004  0.3000000E+03  0.7818608E-02  0.1093470E+00
          1   -1    0    0  502    0  0.00000000000E+00  0.00000000000E+00  0.34751396002E+02  0.34751396002E+02  0.00000000000E+00 0.  1.
         13   -1    0    0    0    0 -0.00000000000E+00 -0.00000000000E+00 -0.10000000000E+04  0.10000000000E+04  0.00000000000E+00 0.  1.
    9000005    2    1    2  501    0  0.23204299586E+02  0.11155301046E+02 -0.98234842217E+03  0.10038437264E+04  0.20501444869E+03 0.  0.
         13    1    3    3    0    0  0.80560720183E+02 -0.30625151648E+00 -0.89561541373E+03  0.89923138998E+03  0.00000000000E+00 0.  1.
          1    1    3    3  501    0 -0.57356420597E+02  0.11461552562E+02 -0.86733008442E+02  0.10461233639E+03  0.00000000000E+00 0.  1.
         21    1    1    2  502  501 -0.23204299586E+02 -0.11155301046E+02  0.17099818170E+02  0.30907669633E+02  0.00000000000E+00 0.  1.
<mgrwt>
<rscale>  1 0.30000000E+03</rscale>
<asrwt>0</asrwt>
<pdfrwt beam="1">  1        1 0.12636898E+00 0.30000000E+03</pdfrwt>
<pdfrwt beam="2">0</pdfrwt>
<totfact> 0.23952720E+01</totfact>
</mgrwt>
</event>
<event>
 6    1  0.2449782E-004  0.3000000E+03  0.7818608E-02  0.1093470E+00
          1   -1    0    0  502    0  0.00000000000E+00  0.00000000000E+00  0.44783150999E+02  0.44783150999E+02  0.00000000000E+00 0.  1.
         13   -1    0    0    0    0 -0.00000000000E+00 -0.00000000000E+00 -0.10000000000E+04  0.10000000000E+04  0.00000000000E+00 0.  1.
    9000005    2    1    2  501    0 -0.13653944953E+02 -0.60874183319E+01 -0.93399744628E+03  0.10188264577E+04  0.40673410773E+03 0.  0.
         13    1    3    3    0    0  0.40691443871E+02 -0.12444236840E+03 -0.85822040271E+03  0.86814973149E+03  0.00000000000E+00 0.  1.
          3    1    3    3  501    0 -0.54345388824E+02  0.11835495007E+03 -0.75777043572E+02  0.15067672622E+03  0.00000000000E+00 0.  1.
         21    1    1    2  502  501  0.13653944953E+02  0.60874183319E+01 -0.21219402716E+02  0.25956693286E+02  0.00000000000E+00 0. -1.
<mgrwt>
<rscale>  1 0.30000000E+03</rscale>
<asrwt>0</asrwt>
<pdfrwt beam="1">  1        1 0.16284817E+00 0.30000000E+03</pdfrwt>
<pdfrwt beam="2">0</pdfrwt>
<totfact> 0.15491387E+01</totfact>
</mgrwt>
</event>
<event>
 6    1  0.1940992E-004  0.3000000E+03  0.7818608E-02  0.1093470E+00
          3   -1    0    0  502    0  0.00000000000E+00  0.00000000000E+00  0.74498593248E+01  0.74498593248E+01  0.00000000000E+00 0.  1.
         13   -1    0    0    0    0 -0.00000000000E+00 -0.00000000000E+00 -0.10000000000E+04  0.10000000000E+04  0.00000000000E+00 0.  1.
    9000005    2    1    2  501    0 -0.84300614920E+01  0.54959376576E+01 -0.93583297133E+03  0.94984683365E+03  0.16224791497E+03 0.  0.
         13    1    3    3    0    0 -0.52895566716E+01 -0.73939062844E+02 -0.60850811659E+03  0.61300660060E+03  0.00000000000E+00 0.  1.
          3    1    3    3  501    0 -0.31405048204E+01  0.79435000502E+02 -0.32732485474E+03  0.33684023305E+03  0.00000000000E+00 0.  1.
         21    1    1    2  502  501  0.84300614920E+01 -0.54959376576E+01 -0.56717169348E+02  0.57603025670E+02  0.00000000000E+00 0.  1.
<mgrwt>
<rscale>  1 0.30000000E+03</rscale>
<asrwt>0</asrwt>
<pdfrwt beam="1">  1        3 0.27090455E-01 0.30000000E+03</pdfrwt>
<pdfrwt beam="2">0</pdfrwt>
<totfact> 0.56734622E+01</totfact>
</mgrwt>
</event>
<event>
 6    1  0.1940992E-004  0.3000000E+03  0.7818608E-02  0.1093470E+00
          1   -1    0    0  502    0  0.00000000000E+00  0.00000000000E+00  0.31544878909E+02  0.31544878909E+02  0.00000000000E+00 0.  1.
         13   -1    0    0    0    0 -0.00000000000E+00 -0.00000000000E+00 -0.10000000000E+04  0.10000000000E+04  0.00000000000E+00 0.  1.
    9000005    2    1    2  501    0 -0.16399825449E+02  0.29589775824E+02 -0.86905065546E+03  0.92654127471E+03  0.31950771958E+03 0.  0.
         13    1    3    3    0    0  0.13509585970E+03  0.57887709760E+02 -0.58711756660E+03  0.60523459523E+03  0.00000000000E+00 0.  1.
          1    1    3    3  501    0 -0.15149568515E+03 -0.28297933937E+02 -0.28193308886E+03  0.32130667948E+03  0.00000000000E+00 0.  1.
         21    1    1    2  502  501  0.16399825449E+02 -0.29589775824E+02 -0.99404465628E+02  0.10500360420E+03  0.00000000000E+00 0. -1.
<mgrwt>
<rscale>  1 0.30000000E+03</rscale>
<asrwt>0</asrwt>
<pdfrwt beam="1">  1        1 0.11470889E+00 0.30000000E+03</pdfrwt>
<pdfrwt beam="2">0</pdfrwt>
<totfact> 0.27874265E+01</totfact>
</mgrwt>
</event>
<event>
 6    1  0.1940992E-004  0.3000000E+03  0.7818608E-02  0.1093470E+00
          1   -1    0    0  502    0  0.00000000000E+00  0.00000000000E+00  0.65730202636E+02  0.65730202636E+02  0.00000000000E+00 0.  1.
         13   -1    0    0    0    0 -0.00000000000E+00 -0.00000000000E+00 -0.10000000000E+04  0.10000000000E+04  0.00000000000E+00 0.  1.
    9000005    2    1    2  501    0 -0.93995174372E+01  0.20105350626E+02 -0.96861742396E+03  0.10248360037E+04  0.33403075378E+03 0.  0.
         13    1    3    3    0    0  0.15075127296E+03  0.65037859295E+02 -0.39984269402E+03  0.43223841732E+03  0.00000000000E+00 0.  1.
          1    1    3    3  501    0 -0.16015079040E+03 -0.44932508669E+02 -0.56877472994E+03  0.59259758641E+03  0.00000000000E+00 0.  1.
         21    1    1    2  502  501  0.93995174372E+01 -0.20105350626E+02  0.34347626598E+02  0.40894198913E+02  0.00000000000E+00 0.  1.
<mgrwt>
<rscale>  1 0.30000000E+03</rscale>
<asrwt>0</asrwt>
<pdfrwt beam="1">  1        1 0.23901942E+00 0.30000000E+03</pdfrwt>
<pdfrwt beam="2">0</pdfrwt>
<totfact> 0.67145521E+00</totfact>
</mgrwt>
</event>
<event>
 6    1  0.1940992E-004  0.3000000E+03  0.7818608E-02  0.1093470E+00
          1   -1    0    0  502    0  0.00000000000E+00  0.00000000000E+00  0.28482214621E+02  0.28482214621E+02  0.00000000000E+00 0.  1.
         13   -1    0    0    0    0 -0.00000000000E+00 -0.00000000000E+00 -0.10000000000E+04  0.10000000000E+04  0.00000000000E+00 0.  1.
    9000005    2    1    2  501    0  0.11667095748E+02  0.17728086107E+02 -0.92286950877E+03  0.97540622214E+03  0.31508532467E+03 0.  0.
         13    1    3    3    0    0 -0.63346518446E+02  0.97151419023E+02 -0.12666504540E+03  0.17174170531E+03  0.00000000000E+00 0.  1.
          1    1    3    3  501    0  0.75013614194E+02 -0.79423332916E+02 -0.79620446337E+03  0.80366451683E+03  0.00000000000E+00 0.  1.
         21    1    1    2  502  501 -0.11667095748E+02 -0.17728086107E+02 -0.48648276613E+02  0.53075992479E+02  0.00000000000E+00 0.  1.
<mgrwt>
<rscale>  1 0.30000000E+03</rscale>
<asrwt>0</asrwt>
<pdfrwt beam="1">  1        1 0.10357191E+00 0.30000000E+03</pdfrwt>
<pdfrwt beam="2">0</pdfrwt>
<totfact> 0.32505701E+01</totfact>
</mgrwt>
</event>
<event>
 6    1  0.1940992E-004  0.3000000E+03  0.7818608E-02  0.1093470E+00
          1   -1    0    0  502    0  0.00000000000E+00  0.00000000000E+00  0.34191596045E+02  0.34191596045E+02  0.00000000000E+00 0.  1.
         13   -1    0    0    0    0 -0.00000000000E+00 -0.00000000000E+00 -0.10000000000E+04  0.10000000000E+04  0.00000000000E+00 0.  1.
    9000005    2    1    2  501    0  0.22017116226E+02  0.32580053445E+02 -0.91191123096E+03  0.96747489239E+03  0.32074812699E+03 0.  0.
         13    1    3    3    0    0 -0.11946622292E+03 -0.78731035134E+02 -0.41245986908E+03  0.43657061045E+03  0.00000000000E+00 0.  1.
          3    1    3    3  501    0  0.14148333915E+03  0.11131108858E+03 -0.49945136188E+03  0.53090428194E+03  0.00000000000E+00 0.  1.
         21    1    1    2  502  501 -0.22017116226E+02 -0.32580053445E+02 -0.53897172997E+02  0.66716703654E+02  0.00000000000E+00 0.  1.
<mgrwt>
<rscale>  1 0.30000000E+03</rscale>
<asrwt>0</asrwt>
<pdfrwt beam="1">  1        1 0.12433334E+00 0.30000000E+03</pdfrwt>
<pdfrwt beam="2">0</pdfrwt>
<totfact> 0.24582473E+01</totfact>
</mgrwt>
</event>
<event>
 6    1  0.1940992E-004  0.3000000E+03  0.7818608E-02  0.1093470E+00
          1   -1    0    0  502    0  0.00000000000E+00  0.00000000000E+00  0.29165270021E+02  0.29165270021E+02  0.00000000000E+00 0.  1.
         13   -1    0    0    0    0 -0.00000000000E+00 -0.00000000000E+00 -0.10000000000E+04  0.10000000000E+04  0.00000000000E+00 0.  1.
    9000005    2    1    2  501    0 -0.10432487566E+02  0.18257787994E+02 -0.92731111606E+03  0.98082803192E+03  0.31886601983E+03 0.  0.
         13    1    3    3    0    0  0.14404885762E+03 -0.38585357990E+02 -0.53469667248E+03  0.55510308483E+03  0.00000000000E+00 0.  1.
          1    1    3    3  501    0 -0.15448134519E+03  0.56843145984E+02 -0.39261444358E+03  0.42572494708E+03  0.00000000000E+00 0.  1.
         21    1    1    2  502  501  0.10432487566E+02 -0.18257787994E+02 -0.43523613917E+02  0.48337238106E+02  0.00000000000E+00 0. -1.
<mgrwt>
<rscale>  1 0.30000000E+03</rscale>
<asrwt>0</asrwt>
<pdfrwt beam="1">  1        1 0.10605575E+00 0.30000000E+03</pdfrwt>
<pdfrwt beam="2">0</pdfrwt>
<totfact> 0.31382139E+01</totfact>
</mgrwt>
</event>
<event>
 6    1  0.1940992E-004  0.3000000E+03  0.7818608E-02  0.1093470E+00
          1   -1    0    0  502    0  0.00000000000E+00  0.00000000000E+00  0.11959813032E+03  0.11959813032E+03  0.00000000000E+00 0.  1.
         13   -1    0    0    0    0 -0.00000000000E+00 -0.00000000000E+00 -0.10000000000E+04  0.10000000000E+04  0.00000000000E+00 0.  1.
    9000005    2    1    2  501    0 -0.42165926082E+02  0.11616990439E+03 -0.92461174808E+03  0.98834293859E+03  0.32656005198E+03 0.  0.
         13    1    3    3    0    0 -0.18126331118E+03  0.96894695171E+02 -0.48213526814E+03  0.52411772219E+03  0.00000000000E+00 0.  1.
          3    1    3    3  501    0  0.13909738510E+03  0.19275209221E+02 -0.44247647995E+03  0.46422521640E+03  0.00000000000E+00 0.  1.
         21    1    1    2  502  501  0.42165926082E+02 -0.11616990439E+03  0.44209878408E+02  0.13125519174E+03  0.00000000000E+00 0.  1.
<mgrwt>
<rscale>  1 0.30000000E+03</rscale>
<asrwt>0</asrwt>
<pdfrwt beam="1">  1        1 0.43490321E+00 0.30000000E+03</pdfrwt>
<pdfrwt beam="2">0</pdfrwt>
<totfact> 0.64657770E-01</totfact>
</mgrwt>
</event>
<event>
 6    1  0.1940992E-004  0.3000000E+03  0.7818608E-02  0.1093470E+00
          1   -1    0    0  502    0  0.00000000000E+00  0.00000000000E+00  0.41462278724E+02  0.41462278724E+02  0.00000000000E+00 0.  1.
         13   -1    0    0    0    0 -0.00000000000E+00 -0.00000000000E+00 -0.10000000000E+04  0.10000000000E+04  0.00000000000E+00 0.  1.
    9000005    2    1    2  501    0  0.25772072849E+01 -0.17642527592E+02 -0.95252570235E+03  0.10226461912E+04  0.37172855421E+03 0.  0.
         13    1    3    3    0    0  0.11007356408E+03 -0.14665438726E+03 -0.32627162292E+03  0.37426844742E+03  0.00000000000E+00 0.  1.
          1    1    3    3  501    0 -0.10749635680E+03  0.12901185967E+03 -0.62625407943E+03  0.64837774381E+03  0.00000000000E+00 0.  1.
         21    1    1    2  502  501 -0.25772072849E+01  0.17642527592E+02 -0.60120189275E+01  0.18816087500E+02  0.00000000000E+00 0. -1.
<mgrwt>
<rscale>  1 0.30000000E+03</rscale>
<asrwt>0</asrwt>
<pdfrwt beam="1">  1        1 0.15077224E+00 0.30000000E+03</pdfrwt>
<pdfrwt beam="2">0</pdfrwt>
<totfact> 0.17803427E+01</totfact>
</mgrwt>
</event>
<event>
 6    1  0.1940992E-004  0.3000000E+03  0.7818608E-02  0.1093470E+00
          1   -1    0    0  502    0  0.00000000000E+00  0.00000000000E+00  0.42335341058E+02  0.42335341058E+02  0.00000000000E+00 0.  1.
         13   -1    0    0    0    0 -0.00000000000E+00 -0.00000000000E+00 -0.10000000000E+04  0.10000000000E+04  0.00000000000E+00 0.  1.
    9000005    2    1    2  501    0 -0.67184009438E+01  0.15164322798E+02 -0.96909526692E+03  0.10221920445E+04  0.32473965864E+03 0.  0.
         13    1    3    3    0    0  0.13356874189E+03 -0.79599080906E+02 -0.43931108637E+03  0.46601593653E+03  0.00000000000E+00 0.  1.
          3    1    3    3  501    0 -0.14028714283E+03  0.94763403704E+02 -0.52978418055E+03  0.55617610798E+03  0.00000000000E+00 0.  1.
         21    1    1    2  502  501  0.67184009438E+01 -0.15164322798E+02  0.11430607978E+02  0.20143296550E+02  0.00000000000E+00 0.  1.
<mgrwt>
<rscale>  1 0.30000000E+03</rscale>
<asrwt>0</asrwt>
<pdfrwt beam="1">  1        1 0.15394702E+00 0.30000000E+03</pdfrwt>
<pdfrwt beam="2">0</pdfrwt>
<totfact> 0.17157783E+01</totfact>
</mgrwt>
</event>
<event>
 6    1  0.1940992E-004  0.3000000E+03  0.7818608E-02  0.1093470E+00
          1   -1    0    0  502    0  0.00000000000E+00  0.00000000000E+00  0.36875467705E+02  0.36875467705E+02  0.00000000000E+00 0.  1.
         13   -1    0    0    0    0 -0.00000000000E+00 -0.00000000000E+00 -0.10000000000E+04  0.10000000000E+04  0.00000000000E+00 0.  1.
    9000005    2    1    2  501    0 -0.24457244906E+01  0.14492555926E+02 -0.96841750974E+03  0.10212539647E+04  0.32389994060E+03 0.  0.
         13    1    3    3    0    0  0.11641492753E+03 -0.10398097938E+03 -0.48941541893E+03  0.51370412857E+03  0.00000000000E+00 0.  1.
          1    1    3    3  501    0 -0.11886065202E+03  0.11847353530E+03 -0.47900209082E+03  0.50754983615E+03  0.00000000000E+00 0.  1.
         21    1    1    2  502  501  0.24457244906E+01 -0.14492555926E+02  0.52929774461E+01  0.15621502995E+02  0.00000000000E+00 0. -1.
<mgrwt>
<rscale>  1 0.30000000E+03</rscale>
<asrwt>0</asrwt>
<pdfrwt beam="1">  1        1 0.13409289E+00 0.30000000E+03</pdfrwt>
<pdfrwt beam="2">0</pdfrwt>
<totfact> 0.21744091E+01</totfact>
</mgrwt>
</event>
<event>
 6    1  0.1940992E-004  0.3000000E+03  0.7818608E-02  0.1093470E+00
          1   -1    0    0  502    0  0.00000000000E+00  0.00000000000E+00  0.33185743984E+02  0.33185743984E+02  0.00000000000E+00 0.  1.
         13   -1    0    0    0    0 -0.00000000000E+00 -0.00000000000E+00 -0.10000000000E+04  0.10000000000E+04  0.00000000000E+00 0.  1.
    9000005    2    1    2  501    0  0.13791150349E+02 -0.14970474049E+02 -0.95526856549E+03  0.10097845925E+04  0.32666891512E+03 0.  0.
         13    1    3    3    0    0 -0.80190880939E+02 -0.96001491304E+02 -0.80610543730E+03  0.81575292814E+03  0.00000000000E+00 0.  1.
          1    1    3    3  501    0  0.93982031288E+02  0.81031017255E+02 -0.14916312819E+03  0.19403166436E+03  0.00000000000E+00 0.  1.
         21    1    1    2  502  501 -0.13791150349E+02  0.14970474049E+02 -0.11545690523E+02  0.23401151486E+02  0.00000000000E+00 0. -1.
<mgrwt>
<rscale>  1 0.30000000E+03</rscale>
<asrwt>0</asrwt>
<pdfrwt beam="1">  1        1 0.12067569E+00 0.30000000E+03</pdfrwt>
<pdfrwt beam="2">0</pdfrwt>
<totfact> 0.25768675E+01</totfact>
</mgrwt>
</event>
<event>
 6    1  0.1940992E-004  0.3000000E+03  0.7818608E-02  0.1093470E+00
          1   -1    0    0  502    0  0.00000000000E+00  0.00000000000E+00  0.34840310773E+02  0.34840310773E+02  0.00000000000E+00 0.  1.
         13   -1    0    0    0    0 -0.00000000000E+00 -0.00000000000E+00 -0.10000000000E+04  0.10000000000E+04  0.00000000000E+00 0.  1.
    9000005    2    1    2  501    0 -0.35134150714E+02  0.16665129653E+02 -0.90219942332E+03  0.96083943121E+03  0.32823235373E+03 0.  0.
         13    1    3    3    0    0  0.24561195631E+02  0.80041978286E+02 -0.86003839230E+03  0.86410416435E+03  0.00000000000E+00 0.  1.
          3    1    3    3  501    0 -0.59695346346E+02 -0.63376848633E+02 -0.42161031021E+02  0.96735266861E+02  0.00000000000E+00 0.  1.
         21    1    1    2  502  501  0.35134150714E+02 -0.16665129653E+02 -0.62960265904E+02  0.74000879559E+02  0.00000000000E+00 0.  1.
<mgrwt>
<rscale>  1 0.30000000E+03</rscale>
<asrwt>0</asrwt>
<pdfrwt beam="1">  1        1 0.12669231E+00 0.30000000E+03</pdfrwt>
<pdfrwt beam="2">0</pdfrwt>
<totfact> 0.23854591E+01</totfact>
</mgrwt>
</event>
<event>
 6    1  0.1940992E-004  0.3000000E+03  0.7818608E-02  0.1093470E+00
          1   -1    0    0  502    0  0.00000000000E+00  0.00000000000E+00  0.31527910995E+02  0.31527910995E+02  0.00000000000E+00 0.  1.
         13   -1    0    0    0    0 -0.00000000000E+00 -0.00000000000E+00 -0.10000000000E+04  0.10000000000E+04  0.00000000000E+00 0.  1.
    9000005    2    1    2  501    0  0.21213466875E+02  0.16742261561E+02 -0.91233306277E+03  0.96922297728E+03  0.32605405650E+03 0.  0.
         13    1    3    3    0    0  0.18016487341E+02  0.89395516826E+02 -0.88780226874E+03  0.89247354057E+03  0.00000000000E+00 0.  1.
          3    1    3    3  501    0  0.31969795338E+01 -0.72653255265E+02 -0.24530794034E+02  0.76749436706E+02  0.00000000000E+00 0.  1.
         21    1    1    2  502  501 -0.21213466875E+02 -0.16742261561E+02 -0.56139026232E+02  0.62304933716E+02  0.00000000000E+00 0.  1.
<mgrwt>
<rscale>  1 0.30000000E+03</rscale>
<asrwt>0</asrwt>
<pdfrwt beam="1">  1        1 0.11464719E+00 0.30000000E+03</pdfrwt>
<pdfrwt beam="2">0</pdfrwt>
<totfact> 0.27897261E+01</totfact>
</mgrwt>
</event>
<event>
 6    1  0.1940992E-004  0.3000000E+03  0.7818608E-02  0.1093470E+00
          1   -1    0    0  502    0  0.00000000000E+00  0.00000000000E+00  0.35136914629E+02  0.35136914629E+02  0.00000000000E+00 0.  1.
         13   -1    0    0    0    0 -0.00000000000E+00 -0.00000000000E+00 -0.10000000000E+04  0.10000000000E+04  0.00000000000E+00 0.  1.
    9000005    2    1    2  501    0  0.12400076256E+02  0.10031091765E+01 -0.97007167287E+03  0.10216499764E+04  0.32027309540E+03 0.  0.
         13    1    3    3    0    0 -0.11360088617E+03 -0.96169160515E+02 -0.61159140796E+03  0.62944238741E+03  0.00000000000E+00 0.  1.
          3    1    3    3  501    0  0.12600096242E+03  0.97172269691E+02 -0.35848026491E+03  0.39220758899E+03  0.00000000000E+00 0.  1.
         21    1    1    2  502  501 -0.12400076256E+02 -0.10031091765E+01  0.52085875028E+01  0.13486938235E+02  0.00000000000E+00 0. -1.
<mgrwt>
<rscale>  1 0.30000000E+03</rscale>
<asrwt>0</asrwt>
<pdfrwt beam="1">  1        1 0.12777087E+00 0.30000000E+03</pdfrwt>
<pdfrwt beam="2">0</pdfrwt>
<totfact> 0.23530950E+01</totfact>
</mgrwt>
</event>
<event>
 6    1  0.1940992E-004  0.3000000E+03  0.7818608E-02  0.1093470E+00
          1   -1    0    0  502    0  0.00000000000E+00  0.00000000000E+00  0.44474140427E+02  0.44474140427E+02  0.00000000000E+00 0.  1.
         13   -1    0    0    0    0 -0.00000000000E+00 -0.00000000000E+00 -0.10000000000E+04  0.10000000000E+04  0.00000000000E+00 0.  1.
    9000005    2    1    2  501    0  0.20391706001E+02  0.14828527575E+02 -0.96641457214E+03  0.10170101465E+04  0.31577967927E+03 0.  0.
         13    1    3    3    0    0 -0.11944495129E+02  0.14199298022E+03 -0.75393237240E+03  0.76728006591E+03  0.00000000000E+00 0.  1.
          1    1    3    3  501    0  0.32336201130E+02 -0.12716445264E+03 -0.21248219974E+03  0.24973008054E+03  0.00000000000E+00 0.  1.
         21    1    1    2  502  501 -0.20391706001E+02 -0.14828527575E+02  0.10888712566E+02  0.27463993974E+02  0.00000000000E+00 0.  1.
<mgrwt>
<rscale>  1 0.30000000E+03</rscale>
<asrwt>0</asrwt>
<pdfrwt beam="1">  1        1 0.16172449E+00 0.30000000E+03</pdfrwt>
<pdfrwt beam="2">0</pdfrwt>
<totfact> 0.15690956E+01</totfact>
</mgrwt>
</event>
<event>
 6    1  0.1940992E-004  0.3000000E+03  0.7818608E-02  0.1093470E+00
          1   -1    0    0  502    0  0.00000000000E+00  0.00000000000E+00  0.29538401388E+02  0.29538401388E+02  0.00000000000E+00 0.  1.
         13   -1    0    0    0    0 -0.00000000000E+00 -0.00000000000E+00 -0.10000000000E+04  0.10000000000E+04  0.00000000000E+00 0.  1.
    9000005    2    1    2  501    0  0.67752933175E+01  0.12880669416E+02 -0.96859394900E+03  0.10148651482E+04  0.30259744670E+03 0.  0.
         13    1    3    3    0    0  0.32337599821E+02  0.45675358152E+02 -0.11833145611E+02  0.57201241591E+02  0.00000000000E+00 0.  1.
          3    1    3    3  501    0 -0.25562306503E+02 -0.32794688736E+02 -0.95676080338E+03  0.95766390661E+03  0.00000000000E+00 0.  1.
         21    1    1    2  502  501 -0.67752933175E+01 -0.12880669416E+02 -0.18676496165E+01  0.14673253192E+02  0.00000000000E+00 0.  1.
<mgrwt>
<rscale>  1 0.30000000E+03</rscale>
<asrwt>0</asrwt>
<pdfrwt beam="1">  1        1 0.10741260E+00 0.30000000E+03</pdfrwt>
<pdfrwt beam="2">0</pdfrwt>
<totfact> 0.30791917E+01</totfact>
</mgrwt>
</event>
<event>
 6    1  0.1940992E-004  0.3000000E+03  0.7818608E-02  0.1093470E+00
          1   -1    0    0  502    0  0.00000000000E+00  0.00000000000E+00  0.75106795050E+02  0.75106795050E+02  0.00000000000E+00 0.  1.
         13   -1    0    0    0    0 -0.00000000000E+00 -0.00000000000E+00 -0.10000000000E+04  0.10000000000E+04  0.00000000000E+00 0.  1.
    9000005    2    1    2  501    0 -0.65358694273E+01  0.13087854418E+02 -0.97201846068E+03  0.10257631100E+04  0.32734700322E+03 0.  0.
         13    1    3    3    0    0  0.24416380482E+02  0.20489325825E+02 -0.98912062789E+03  0.98963406804E+03  0.00000000000E+00 0.  1.
          3    1    3    3  501    0 -0.30952249909E+02 -0.74014714064E+01  0.17102167209E+02  0.36129042011E+02  0.00000000000E+00 0.  1.
         21    1    1    2  502  501  0.65358694273E+01 -0.13087854418E+02  0.47125255726E+02  0.49343685004E+02  0.00000000000E+00 0.  1.
<mgrwt>
<rscale>  1 0.30000000E+03</rscale>
<asrwt>0</asrwt>
<pdfrwt beam="1">  1        1 0.27311619E+00 0.30000000E+03</pdfrwt>
<pdfrwt beam="2">0</pdfrwt>
<totfact> 0.46494716E+00</totfact>
</mgrwt>
</event>
<event>
 6    1  0.1940992E-004  0.3000000E+03  0.7818608E-02  0.1093470E+00
          1   -1    0    0  502    0  0.00000000000E+00  0.00000000000E+00  0.37438490586E+02  0.37438490586E+02  0.00000000000E+00 0.  1.
         13   -1    0    0    0    0 -0.00000000000E+00 -0.00000000000E+00 -0.10000000000E+04  0.10000000000E+04  0.00000000000E+00 0.  1.
    9000005    2    1    2  501    0 -0.22087638473E+02 -0.11906852514E+02 -0.95858202030E+03  0.10120323251E+04  0.32357425815E+03 0.  0.
         13    1    3    3    0    0  0.77194862697E+02 -0.14034028239E+03 -0.41944027159E+03  0.44898171803E+03  0.00000000000E+00 0.  1.
          1    1    3    3  501    0 -0.99282501170E+02  0.12843342988E+03 -0.53914174870E+03  0.56305060709E+03  0.00000000000E+00 0.  1.
         21    1    1    2  502  501  0.22087638473E+02  0.11906852514E+02 -0.39794891171E+01  0.25406165467E+02  0.00000000000E+00 0. -1.
<mgrwt>
<rscale>  1 0.30000000E+03</rscale>
<asrwt>0</asrwt>
<pdfrwt beam="1">  1        1 0.13614025E+00 0.30000000E+03</pdfrwt>
<pdfrwt beam="2">0</pdfrwt>
<totfact> 0.21203883E+01</totfact>
</mgrwt>
</event>
<event>
 6    1  0.1940992E-004  0.3000000E+03  0.7818608E-02  0.1093470E+00
          1   -1    0    0  502    0  0.00000000000E+00  0.00000000000E+00  0.28597477669E+02  0.28597477669E+02  0.00000000000E+00 0.  1.
         13   -1    0    0    0    0 -0.00000000000E+00 -0.00000000000E+00 -0.10000000000E+04  0.10000000000E+04  0.00000000000E+00 0.  1.
    9000005    2    1    2  501    0 -0.12905146907E+02  0.42124703901E+01 -0.94364565873E+03  0.99769875277E+03  0.32365318524E+03 0.  0.
         13    1    3    3    0    0 -0.30627164091E+02 -0.11394262982E+03 -0.80953134400E+03  0.81808431288E+03  0.00000000000E+00 0.  1.
          1    1    3    3  501    0  0.17722017184E+02  0.11815510021E+03 -0.13411431473E+03  0.17961443989E+03  0.00000000000E+00 0.  1.
         21    1    1    2  502  501  0.12905146907E+02 -0.42124703901E+01 -0.27756863603E+02  0.30898724902E+02  0.00000000000E+00 0. -1.
<mgrwt>
<rscale>  1 0.30000000E+03</rscale>
<asrwt>0</asrwt>
<pdfrwt beam="1">  1        1 0.10399105E+00 0.30000000E+03</pdfrwt>
<pdfrwt beam="2">0</pdfrwt>
<totfact> 0.32312057E+01</totfact>
</mgrwt>
</event>
<event>
 6    1  0.1940992E-004  0.3000000E+03  0.7818608E-02  0.1093470E+00
          1   -1    0    0  502    0  0.00000000000E+00  0.00000000000E+00  0.27407616711E+02  0.27407616711E+02  0.00000000000E+00 0.  1.
         13   -1    0    0    0    0 -0.00000000000E+00 -0.00000000000E+00 -0.10000000000E+04  0.10000000000E+04  0.00000000000E+00 0.  1.
    9000005    2    1    2  501    0  0.46298416430E+01  0.74519716150E+01 -0.95242897641E+03  0.10054182945E+04  0.32197519234E+03 0.  0.
         13    1    3    3    0    0 -0.13699497136E+03 -0.71603106209E+02 -0.55610965006E+03  0.57719370222E+03  0.00000000000E+00 0.  1.
          1    1    3    3  501    0  0.14162481300E+03  0.79055077824E+02 -0.39631932635E+03  0.42822459227E+03  0.00000000000E+00 0.  1.
         21    1    1    2  502  501 -0.46298416430E+01 -0.74519716150E+01 -0.20163406880E+02  0.21989322217E+02  0.00000000000E+00 0. -1.
<mgrwt>
<rscale>  1 0.30000000E+03</rscale>
<asrwt>0</asrwt>
<pdfrwt beam="1">  1        1 0.99664271E-01 0.30000000E+03</pdfrwt>
<pdfrwt beam="2">0</pdfrwt>
<totfact> 0.34395570E+01</totfact>
</mgrwt>
</event>
<event>
 6    1  0.1940992E-004  0.3000000E+03  0.7818608E-02  0.1093470E+00
          1   -1    0    0  502    0  0.00000000000E+00  0.00000000000E+00  0.29272721622E+02  0.29272721622E+02  0.00000000000E+00 0.  1.
         13   -1    0    0    0    0 -0.00000000000E+00 -0.00000000000E+00 -0.10000000000E+04  0.10000000000E+04  0.00000000000E+00 0.  1.
    9000005    2    1    2  501    0 -0.84028002270E+01  0.83939468155E+01 -0.95713959687E+03  0.10112258248E+04  0.32606808419E+03 0.  0.
         13    1    3    3    0    0  0.66787937902E+02 -0.95111975733E+01 -0.19246984560E+02  0.70153673768E+02  0.00000000000E+00 0.  1.
          3    1    3    3  501    0 -0.75190738129E+02  0.17905144389E+02 -0.93789261231E+03  0.94107215107E+03  0.00000000000E+00 0.  1.
         21    1    1    2  502  501  0.84028002270E+01 -0.83939468155E+01 -0.13587681511E+02  0.18046896787E+02  0.00000000000E+00 0. -1.
<mgrwt>
<rscale>  1 0.30000000E+03</rscale>
<asrwt>0</asrwt>
<pdfrwt beam="1">  1        1 0.10644648E+00 0.30000000E+03</pdfrwt>
<pdfrwt beam="2">0</pdfrwt>
<totfact> 0.31210515E+01</totfact>
</mgrwt>
</event>
<event>
 6    1  0.1940992E-004  0.3000000E+03  0.7818608E-02  0.1093470E+00
          1   -1    0    0  502    0  0.00000000000E+00  0.00000000000E+00  0.34182673712E+02  0.34182673712E+02  0.00000000000E+00 0.  1.
         13   -1    0    0    0    0 -0.00000000000E+00 -0.00000000000E+00 -0.10000000000E+04  0.10000000000E+04  0.00000000000E+00 0.  1.
    9000005    2    1    2  501    0 -0.31577521695E+01 -0.18293175572E+02 -0.96055445060E+03  0.10148873496E+04  0.32708847149E+03 0.  0.
         13    1    3    3    0    0 -0.64512740526E+01 -0.16547670125E+03 -0.35548891091E+03  0.39216899848E+03  0.00000000000E+00 0.  1.
          3    1    3    3  501    0  0.32935218831E+01  0.14718352568E+03 -0.60506553969E+03  0.62271835114E+03  0.00000000000E+00 0.  1.
         21    1    1    2  502  501  0.31577521695E+01  0.18293175572E+02 -0.52628756870E+01  0.19295324091E+02  0.00000000000E+00 0.  1.
<mgrwt>
<rscale>  1 0.30000000E+03</rscale>
<asrwt>0</asrwt>
<pdfrwt beam="1">  1        1 0.12430089E+00 0.30000000E+03</pdfrwt>
<pdfrwt beam="2">0</pdfrwt>
<totfact> 0.24592679E+01</totfact>
</mgrwt>
</event>
<event>
 6    1  0.1940992E-004  0.3000000E+03  0.7818608E-02  0.1093470E+00
          1   -1    0    0  502    0  0.00000000000E+00  0.00000000000E+00  0.49070407411E+02  0.49070407411E+02  0.00000000000E+00 0.  1.
         13   -1    0    0    0    0 -0.00000000000E+00 -0.00000000000E+00 -0.10000000000E+04  0.10000000000E+04  0.00000000000E+00 0.  1.
    9000005    2    1    2  501    0  0.58743414716E+02  0.50288384647E+01 -0.93858217370E+03  0.98883307063E+03  0.30557857713E+03 0.  0.
         13    1    3    3    0    0  0.15441015392E+02  0.32576465878E+02 -0.93678601759E+03  0.93747943649E+03  0.00000000000E+00 0.  1.
          1    1    3    3  501    0  0.43302399325E+02 -0.27547627413E+02 -0.17961561127E+01  0.51353634147E+02  0.00000000000E+00 0.  1.
         21    1    1    2  502  501 -0.58743414716E+02 -0.50288384647E+01 -0.12347418888E+02  0.60237336777E+02  0.00000000000E+00 0.  1.
<mgrwt>
<rscale>  1 0.30000000E+03</rscale>
<asrwt>0</asrwt>
<pdfrwt beam="1">  1        1 0.17843822E+00 0.30000000E+03</pdfrwt>
<pdfrwt beam="2">0</pdfrwt>
<totfact> 0.12998773E+01</totfact>
</mgrwt>
</event>
<event>
 6    1  0.1940992E-004  0.3000000E+03  0.7818608E-02  0.1093470E+00
          1   -1    0    0  502    0  0.00000000000E+00  0.00000000000E+00  0.30406632438E+02  0.30406632438E+02  0.00000000000E+00 0.  1.
         13   -1    0    0    0    0 -0.00000000000E+00 -0.00000000000E+00 -0.10000000000E+04  0.10000000000E+04  0.00000000000E+00 0.  1.
    9000005    2    1    2  501    0 -0.70244690158E+01 -0.22445324448E+02 -0.91655756452E+03  0.97238997829E+03  0.32390023934E+03 0.  0.
         13    1    3    3    0    0  0.15580470579E+03 -0.39978609592E+02 -0.46794116111E+03  0.49481544624E+03  0.00000000000E+00 0.  1.
          1    1    3    3  501    0 -0.16282917481E+03  0.17533285145E+02 -0.44861640341E+03  0.47757453205E+03  0.00000000000E+00 0.  1.
         21    1    1    2  502  501  0.70244690158E+01  0.22445324448E+02 -0.53035803044E+02  0.58016654152E+02  0.00000000000E+00 0. -1.
<mgrwt>
<rscale>  1 0.30000000E+03</rscale>
<asrwt>0</asrwt>
<pdfrwt beam="1">  1        1 0.11056981E+00 0.30000000E+03</pdfrwt>
<pdfrwt beam="2">0</pdfrwt>
<totfact> 0.29478590E+01</totfact>
</mgrwt>
</event>
<event>
 6    1  0.1940992E-004  0.3000000E+03  0.7818608E-02  0.1093470E+00
          1   -1    0    0  502    0  0.00000000000E+00  0.00000000000E+00  0.89324952310E+02  0.89324952310E+02  0.00000000000E+00 0.  1.
         13   -1    0    0    0    0 -0.00000000000E+00 -0.00000000000E+00 -0.10000000000E+04  0.10000000000E+04  0.00000000000E+00 0.  1.
    9000005    2    1    2  501    0 -0.47546788817E+01 -0.92575594535E+01 -0.97138349950E+03  0.10277309145E+04  0.33546478210E+03 0.  0.
         13    1    3    3    0    0 -0.13812112257E+03 -0.82495488250E+02 -0.68275475184E+03  0.70145349186E+03  0.00000000000E+00 0.  1.
          3    1    3    3  501    0  0.13336644368E+03  0.73237928796E+02 -0.28862874766E+03  0.32627742259E+03  0.00000000000E+00 0.  1.
         21    1    1    2  502  501  0.47546788817E+01  0.92575594535E+01  0.60708451813E+02  0.61594037860E+02  0.00000000000E+00 0.  1.
<mgrwt>
<rscale>  1 0.30000000E+03</rscale>
<asrwt>0</asrwt>
<pdfrwt beam="1">  1        1 0.32481869E+00 0.30000000E+03</pdfrwt>
<pdfrwt beam="2">0</pdfrwt>
<totfact> 0.26373176E+00</totfact>
</mgrwt>
</event>
<event>
 6    1  0.1940992E-004  0.3000000E+03  0.7818608E-02  0.1093470E+00
          1   -1    0    0  502    0  0.00000000000E+00  0.00000000000E+00  0.33970283924E+02  0.33970283924E+02  0.00000000000E+00 0.  1.
         13   -1    0    0    0    0 -0.00000000000E+00 -0.00000000000E+00 -0.10000000000E+04  0.10000000000E+04  0.00000000000E+00 0.  1.
    9000005    2    1    2  501    0  0.76927823483E+01 -0.12690890967E+02 -0.96546916563E+03  0.10191192964E+04  0.32596501790E+03 0.  0.
         13    1    3    3    0    0 -0.12297846268E+03  0.53504422085E+01 -0.15474116060E+03  0.19773000859E+03  0.00000000000E+00 0.  1.
          1    1    3    3  501    0  0.13067124503E+03 -0.18041333176E+02 -0.81072800503E+03  0.82138928780E+03  0.00000000000E+00 0.  1.
         21    1    1    2  502  501 -0.76927823483E+01  0.12690890967E+02 -0.56055044904E+00  0.14850987530E+02  0.00000000000E+00 0.  1.
<mgrwt>
<rscale>  1 0.30000000E+03</rscale>
<asrwt>0</asrwt>
<pdfrwt beam="1">  1        1 0.12352857E+00 0.30000000E+03</pdfrwt>
<pdfrwt beam="2">0</pdfrwt>
<totfact> 0.24837251E+01</totfact>
</mgrwt>
</event>
<event>
 6    1  0.1940992E-004  0.3000000E+03  0.7818608E-02  0.1093470E+00
          1   -1    0    0  502    0  0.00000000000E+00  0.00000000000E+00  0.32229038440E+02  0.32229038440E+02  0.00000000000E+00 0.  1.
         13   -1    0    0    0    0 -0.00000000000E+00 -0.00000000000E+00 -0.10000000000E+04  0.10000000000E+04  0.00000000000E+00 0.  1.
    9000005    2    1    2  501    0 -0.14675208485E+02 -0.24649794111E+02 -0.90654446383E+03  0.96461500057E+03  0.32838431801E+03 0.  0.
         13    1    3    3    0    0  0.62159698624E+02 -0.81345662140E+02 -0.73287911867E+02  0.12590497571E+03  0.00000000000E+00 0.  1.
          1    1    3    3  501    0 -0.76834907109E+02  0.56695868029E+02 -0.83325655197E+03  0.83871002486E+03  0.00000000000E+00 0.  1.
         21    1    1    2  502  501  0.14675208485E+02  0.24649794111E+02 -0.61226497726E+02  0.67614037874E+02  0.00000000000E+00 0. -1.
<mgrwt>
<rscale>  1 0.30000000E+03</rscale>
<asrwt>0</asrwt>
<pdfrwt beam="1">  1        1 0.11719675E+00 0.30000000E+03</pdfrwt>
<pdfrwt beam="2">0</pdfrwt>
<totfact> 0.26968675E+01</totfact>
</mgrwt>
</event>
<event>
 6    1  0.1940992E-004  0.3000000E+03  0.7818608E-02  0.1093470E+00
          3   -1    0    0  502    0  0.00000000000E+00  0.00000000000E+00  0.28405608848E+02  0.28405608848E+02  0.00000000000E+00 0.  1.
         13   -1    0    0    0    0 -0.00000000000E+00 -0.00000000000E+00 -0.10000000000E+04  0.10000000000E+04  0.00000000000E+00 0.  1.
    9000005    2    1    2  501    0  0.10743990672E+01  0.79649784052E+01 -0.94191416632E+03  0.99765644691E+03  0.32871187097E+03 0.  0.
         13    1    3    3    0    0 -0.22013353613E+02 -0.23695977281E+02 -0.95560232012E+03  0.95614950781E+03  0.00000000000E+00 0.  1.
          1    1    3    3  501    0  0.23087752680E+02  0.31660955686E+02  0.13688153792E+02  0.41506939095E+02  0.00000000000E+00 0.  1.
         21    1    1    2  502  501 -0.10743990672E+01 -0.79649784052E+01 -0.29680224827E+02  0.30749161942E+02  0.00000000000E+00 0. -1.
<mgrwt>
<rscale>  1 0.30000000E+03</rscale>
<asrwt>0</asrwt>
<pdfrwt beam="1">  1        3 0.10329334E+00 0.30000000E+03</pdfrwt>
<pdfrwt beam="2">0</pdfrwt>
<totfact> 0.35929679E+00</totfact>
</mgrwt>
</event>
<event>
 6    1  0.1940992E-004  0.3000000E+03  0.7818608E-02  0.1093470E+00
          1   -1    0    0  502    0  0.00000000000E+00  0.00000000000E+00  0.29959502501E+02  0.29959502501E+02  0.00000000000E+00 0.  1.
         13   -1    0    0    0    0 -0.00000000000E+00 -0.00000000000E+00 -0.10000000000E+04  0.10000000000E+04  0.00000000000E+00 0.  1.
    9000005    2    1    2  501    0 -0.55889750024E+01 -0.68341943531E+01 -0.95143710529E+03  0.10093675367E+04  0.33691588855E+03 0.  0.
         13    1    3    3    0    0  0.82619740451E+02  0.52772952760E+02 -0.86954517646E+03  0.87505418115E+03  0.00000000000E+00 0.  1.
          1    1    3    3  501    0 -0.88208715454E+02 -0.59607147113E+02 -0.81891928831E+02  0.13431335554E+03  0.00000000000E+00 0.  1.
         21    1    1    2  502  501  0.55889750024E+01  0.68341943531E+01 -0.18603392211E+02  0.20591965807E+02  0.00000000000E+00 0. -1.
<mgrwt>
<rscale>  1 0.30000000E+03</rscale>
<asrwt>0</asrwt>
<pdfrwt beam="1">  1        1 0.10894388E+00 0.30000000E+03</pdfrwt>
<pdfrwt beam="2">0</pdfrwt>
<totfact> 0.30144746E+01</totfact>
</mgrwt>
</event>
<event>
 6    1  0.1940992E-004  0.3000000E+03  0.7818608E-02  0.1093470E+00
          1   -1    0    0  502    0  0.00000000000E+00  0.00000000000E+00  0.42917963231E+02  0.42917963231E+02  0.00000000000E+00 0.  1.
         13   -1    0    0    0    0 -0.00000000000E+00 -0.00000000000E+00 -0.10000000000E+04  0.10000000000E+04  0.00000000000E+00 0.  1.
    9000005    2    1    2  501    0 -0.81199978525E+01 -0.75564085903E+01 -0.97184785937E+03  0.10244500670E+04  0.32386207596E+03 0.  0.
         13    1    3    3    0    0  0.14026911071E+03 -0.40923491861E+02 -0.67808172490E+03  0.69364614989E+03  0.00000000000E+00 0.  1.
          3    1    3    3  501    0 -0.14838910856E+03  0.33367083270E+02 -0.29376613446E+03  0.33080391706E+03  0.00000000000E+00 0.  1.
         21    1    1    2  502  501  0.81199978525E+01  0.75564085903E+01  0.14765822600E+02  0.18467896278E+02  0.00000000000E+00 0.  1.
<mgrwt>
<rscale>  1 0.30000000E+03</rscale>
<asrwt>0</asrwt>
<pdfrwt beam="1">  1        1 0.15606565E+00 0.30000000E+03</pdfrwt>
<pdfrwt beam="2">0</pdfrwt>
<totfact> 0.16742674E+01</totfact>
</mgrwt>
</event>
<event>
 6    1  0.1940992E-004  0.3000000E+03  0.7818608E-02  0.1093470E+00
          1   -1    0    0  502    0  0.00000000000E+00  0.00000000000E+00  0.45047910973E+02  0.45047910973E+02  0.00000000000E+00 0.  1.
         13   -1    0    0    0    0 -0.00000000000E+00 -0.00000000000E+00 -0.10000000000E+04  0.10000000000E+04  0.00000000000E+00 0.  1.
    9000005    2    1    2  501    0  0.11010659174E+02 -0.11549050302E+02 -0.97353340927E+03  0.10205554501E+04  0.30579652151E+03 0.  0.
         13    1    3    3    0    0  0.13369073265E+02 -0.13585526079E+03 -0.77034735413E+03  0.78234930180E+03  0.00000000000E+00 0.  1.
          3    1    3    3  501    0 -0.23584140910E+01  0.12430621049E+03 -0.20318605513E+03  0.23820614829E+03  0.00000000000E+00 0.  1.
         21    1    1    2  502  501 -0.11010659174E+02  0.11549050302E+02  0.18581320241E+02  0.24492460885E+02  0.00000000000E+00 0.  1.
<mgrwt>
<rscale>  1 0.30000000E+03</rscale>
<asrwt>0</asrwt>
<pdfrwt beam="1">  1        1 0.16381093E+00 0.30000000E+03</pdfrwt>
<pdfrwt beam="2">0</pdfrwt>
<totfact> 0.15322721E+01</totfact>
</mgrwt>
</event>
<event>
 6    1  0.1940992E-004  0.3000000E+03  0.7818608E-02  0.1093470E+00
          1   -1    0    0  502    0  0.00000000000E+00  0.00000000000E+00  0.58087050654E+02  0.58087050654E+02  0.00000000000E+00 0.  1.
         13   -1    0    0    0    0 -0.00000000000E+00 -0.00000000000E+00 -0.10000000000E+04  0.10000000000E+04  0.00000000000E+00 0.  1.
    9000005    2    1    2  501    0  0.80278416315E+02  0.24057970790E+02 -0.77179133341E+03  0.86844324165E+03  0.38924078866E+03 0.  0.
         13    1    3    3    0    0  0.65746653800E+01  0.23461114765E+02 -0.79171651992E+03  0.79209134451E+03  0.00000000000E+00 0.  1.
          1    1    3    3  501    0  0.73703750935E+02  0.59685602506E+00  0.19925186513E+02  0.76351897139E+02  0.00000000000E+00 0.  1.
         21    1    1    2  502  501 -0.80278416315E+02 -0.24057970790E+02 -0.17012161594E+03  0.18964380900E+03  0.00000000000E+00 0.  1.
<mgrwt>
<rscale>  1 0.30000000E+03</rscale>
<asrwt>0</asrwt>
<pdfrwt beam="1">  1        1 0.21122608E+00 0.30000000E+03</pdfrwt>
<pdfrwt beam="2">0</pdfrwt>
<totfact> 0.90639631E+00</totfact>
</mgrwt>
</event>
<event>
 6    1  0.1940992E-004  0.3000000E+03  0.7818608E-02  0.1093470E+00
          1   -1    0    0  502    0  0.00000000000E+00  0.00000000000E+00  0.27707330721E+02  0.27707330721E+02  0.00000000000E+00 0.  1.
         13   -1    0    0    0    0 -0.00000000000E+00 -0.00000000000E+00 -0.10000000000E+04  0.10000000000E+04  0.00000000000E+00 0.  1.
    9000005    2    1    2  501    0 -0.30508078295E+01 -0.85688056536E+01 -0.91930212308E+03  0.97394182277E+03  0.32150201988E+03 0.  0.
         13    1    3    3    0    0  0.15621531011E+03 -0.31430926832E+02 -0.50260230460E+03  0.52725724544E+03  0.00000000000E+00 0.  1.
          3    1    3    3  501    0 -0.15926611794E+03  0.22862121179E+02 -0.41669981848E+03  0.44668457734E+03  0.00000000000E+00 0.  1.
         21    1    1    2  502  501  0.30508078295E+01  0.85688056536E+01 -0.52990546197E+02  0.53765507948E+02  0.00000000000E+00 0. -1.
<mgrwt>
<rscale>  1 0.30000000E+03</rscale>
<asrwt>0</asrwt>
<pdfrwt beam="1">  1        1 0.10075414E+00 0.30000000E+03</pdfrwt>
<pdfrwt beam="2">0</pdfrwt>
<totfact> 0.33852590E+01</totfact>
</mgrwt>
</event>
<event>
 6    1  0.1940992E-004  0.3000000E+03  0.7818608E-02  0.1093470E+00
          1   -1    0    0  502    0  0.00000000000E+00  0.00000000000E+00  0.71245324739E+02  0.71245324739E+02  0.00000000000E+00 0.  1.
         13   -1    0    0    0    0 -0.00000000000E+00 -0.00000000000E+00 -0.10000000000E+04  0.10000000000E+04  0.00000000000E+00 0.  1.
    9000005    2    1    2  501    0  0.11594543359E+02  0.13039077405E+02 -0.97366148227E+03  0.10230678166E+04  0.31360265357E+03 0.  0.
         13    1    3    3    0    0  0.14774483230E+03  0.70435376899E+02 -0.44497501594E+03  0.47412281384E+03  0.00000000000E+00 0.  1.
          3    1    3    3  501    0 -0.13615028894E+03 -0.57396299494E+02 -0.52868646633E+03  0.54894500276E+03  0.00000000000E+00 0.  1.
         21    1    1    2  502  501 -0.11594543359E+02 -0.13039077405E+02  0.44906807007E+02  0.48177508143E+02  0.00000000000E+00 0.  1.
<mgrwt>
<rscale>  1 0.30000000E+03</rscale>
<asrwt>0</asrwt>
<pdfrwt beam="1">  1        1 0.25907445E+00 0.30000000E+03</pdfrwt>
<pdfrwt beam="2">0</pdfrwt>
<totfact> 0.54121468E+00</totfact>
</mgrwt>
</event>
<event>
 6    1  0.1940992E-004  0.3000000E+03  0.7818608E-02  0.1093470E+00
          1   -1    0    0  502    0  0.00000000000E+00  0.00000000000E+00  0.39271407853E+02  0.39271407853E+02  0.00000000000E+00 0.  1.
         13   -1    0    0    0    0 -0.00000000000E+00 -0.00000000000E+00 -0.10000000000E+04  0.10000000000E+04  0.00000000000E+00 0.  1.
    9000005    2    1    2  501    0 -0.26597327593E+02  0.16530242452E+02 -0.94073170246E+03  0.10021157576E+04  0.34391741569E+03 0.  0.
         13    1    3    3    0    0 -0.13893252150E+03 -0.32153085423E+02 -0.81213116211E+03  0.82455629941E+03  0.00000000000E+00 0.  1.
          1    1    3    3  501    0  0.11233519391E+03  0.48683327875E+02 -0.12860054035E+03  0.17755945816E+03  0.00000000000E+00 0.  1.
         21    1    1    2  502  501  0.26597327593E+02 -0.16530242452E+02 -0.19996889692E+02  0.37155650283E+02  0.00000000000E+00 0.  1.
<mgrwt>
<rscale>  1 0.30000000E+03</rscale>
<asrwt>0</asrwt>
<pdfrwt beam="1">  1        1 0.14280542E+00 0.30000000E+03</pdfrwt>
<pdfrwt beam="2">0</pdfrwt>
<totfact> 0.19561416E+01</totfact>
</mgrwt>
</event>
<event>
 6    1  0.1940992E-004  0.3000000E+03  0.7818608E-02  0.1093470E+00
          3   -1    0    0  502    0  0.00000000000E+00  0.00000000000E+00  0.31337329176E+02  0.31337329176E+02  0.00000000000E+00 0.  1.
         13   -1    0    0    0    0 -0.00000000000E+00 -0.00000000000E+00 -0.10000000000E+04  0.10000000000E+04  0.00000000000E+00 0.  1.
    9000005    2    1    2  501    0  0.13167334476E+02 -0.63393828391E+01 -0.96069248178E+03  0.10146912971E+04  0.32627414440E+03 0.  0.
         13    1    3    3    0    0  0.11976396547E+03 -0.15644132681E+02 -0.85774467455E+03  0.86620671496E+03  0.00000000000E+00 0.  1.
          3    1    3    3  501    0 -0.10659663099E+03  0.93047498423E+01 -0.10294780722E+03  0.14848458210E+03  0.00000000000E+00 0.  1.
         21    1    1    2  502  501 -0.13167334476E+02  0.63393828391E+01 -0.79701890479E+01  0.16646032123E+02  0.00000000000E+00 0. -1.
<mgrwt>
<rscale>  1 0.30000000E+03</rscale>
<asrwt>0</asrwt>
<pdfrwt beam="1">  1        3 0.11395416E+00 0.30000000E+03</pdfrwt>
<pdfrwt beam="2">0</pdfrwt>
<totfact> 0.27159543E+00</totfact>
</mgrwt>
</event>
<event>
 6    1  0.1940992E-004  0.3000000E+03  0.7818608E-02  0.1093470E+00
          3   -1    0    0  502    0  0.00000000000E+00  0.00000000000E+00  0.40315439241E+02  0.40315439241E+02  0.00000000000E+00 0.  1.
         13   -1    0    0    0    0 -0.00000000000E+00 -0.00000000000E+00 -0.10000000000E+04  0.10000000000E+04  0.00000000000E+00 0.  1.
    9000005    2    1    2  501    0  0.58929757049E+01 -0.14915301442E+02 -0.97015701660E+03  0.10211617004E+04  0.31829135733E+03 0.  0.
         13    1    3    3    0    0  0.53136430258E+01  0.24827342820E+02  0.18683248396E+02  0.31522936480E+02  0.00000000000E+00 0.  1.
          1    1    3    3  501    0  0.57933267912E+00 -0.39742644262E+02 -0.98884026500E+03  0.98963876393E+03  0.00000000000E+00 0.  1.
         21    1    1    2  502  501 -0.58929757049E+01  0.14915301442E+02  0.10472455842E+02  0.19153738829E+02  0.00000000000E+00 0. -1.
<mgrwt>
<rscale>  1 0.30000000E+03</rscale>
<asrwt>0</asrwt>
<pdfrwt beam="1">  1        3 0.14660191E+00 0.30000000E+03</pdfrwt>
<pdfrwt beam="2">0</pdfrwt>
<totfact> 0.11002513E+00</totfact>
</mgrwt>
</event>
<event>
 6    1  0.1940992E-004  0.3000000E+03  0.7818608E-02  0.1093470E+00
          1   -1    0    0  502    0  0.00000000000E+00  0.00000000000E+00  0.33690540046E+02  0.33690540046E+02  0.00000000000E+00 0.  1.
         13   -1    0    0    0    0 -0.00000000000E+00 -0.00000000000E+00 -0.10000000000E+04  0.10000000000E+04  0.00000000000E+00 0.  1.
    9000005    2    1    2  501    0  0.12545577846E+02  0.41213265999E+02 -0.91597272604E+03  0.96743564137E+03  0.30833384589E+03 0.  0.
         13    1    3    3    0    0  0.51726032169E+02  0.14390167950E+02 -0.91832666348E+03  0.91989484193E+03  0.00000000000E+00 0.  1.
          3    1    3    3  501    0 -0.39180454323E+02  0.26823098049E+02  0.23539374455E+01  0.47540799440E+02  0.00000000000E+00 0.  1.
         21    1    1    2  502  501 -0.12545577846E+02 -0.41213265999E+02 -0.50336733917E+02  0.66254898681E+02  0.00000000000E+00 0. -1.
<mgrwt>
<rscale>  1 0.30000000E+03</rscale>
<asrwt>0</asrwt>
<pdfrwt beam="1">  1        1 0.12251131E+00 0.30000000E+03</pdfrwt>
<pdfrwt beam="2">0</pdfrwt>
<totfact> 0.25164221E+01</totfact>
</mgrwt>
</event>
<event>
 6    1  0.1940992E-004  0.3000000E+03  0.7818608E-02  0.1093470E+00
          1   -1    0    0  502    0  0.00000000000E+00  0.00000000000E+00  0.85458358620E+02  0.85458358620E+02  0.00000000000E+00 0.  1.
         13   -1    0    0    0    0 -0.00000000000E+00 -0.00000000000E+00 -0.10000000000E+04  0.10000000000E+04  0.00000000000E+00 0.  1.
    9000005    2    1    2  501    0 -0.22323400889E+02 -0.18464764299E+02 -0.97173966709E+03  0.10213420901E+04  0.31308529606E+03 0.  0.
         13    1    3    3    0    0 -0.22812782836E+01 -0.13947530058E+03 -0.78911098653E+03  0.80134556389E+03  0.00000000000E+00 0.  1.
          3    1    3    3  501    0 -0.20042122605E+02  0.12101053628E+03 -0.18262868056E+03  0.21999652618E+03  0.00000000000E+00 0.  1.
         21    1    1    2  502  501  0.22323400889E+02  0.18464764299E+02  0.57198025708E+02  0.64116268550E+02  0.00000000000E+00 0.  1.
<mgrwt>
<rscale>  1 0.30000000E+03</rscale>
<asrwt>0</asrwt>
<pdfrwt beam="1">  1        1 0.31075832E+00 0.30000000E+03</pdfrwt>
<pdfrwt beam="2">0</pdfrwt>
<totfact> 0.30868188E+00</totfact>
</mgrwt>
</event>
<event>
 6    1  0.1940992E-004  0.3000000E+03  0.7818608E-02  0.1093470E+00
          1   -1    0    0  502    0  0.00000000000E+00  0.00000000000E+00  0.48360956078E+02  0.48360956078E+02  0.00000000000E+00 0.  1.
         13   -1    0    0    0    0 -0.00000000000E+00 -0.00000000000E+00 -0.10000000000E+04  0.10000000000E+04  0.00000000000E+00 0.  1.
    9000005    2    1    2  501    0  0.21469871779E+02 -0.21115056006E+02 -0.95432538732E+03  0.10181282350E+04  0.35347044713E+03 0.  0.
         13    1    3    3    0    0 -0.92700616423E+02  0.48580241349E+02 -0.82653377057E+03  0.83313355354E+03  0.00000000000E+00 0.  1.
          3    1    3    3  501    0  0.11417048820E+03 -0.69695297356E+02 -0.12779161675E+03  0.18499468144E+03  0.00000000000E+00 0.  1.
         21    1    1    2  502  501 -0.21469871779E+02  0.21115056006E+02  0.26863433965E+01  0.30232721101E+02  0.00000000000E+00 0. -1.
<mgrwt>
<rscale>  1 0.30000000E+03</rscale>
<asrwt>0</asrwt>
<pdfrwt beam="1">  1        1 0.17585839E+00 0.30000000E+03</pdfrwt>
<pdfrwt beam="2">0</pdfrwt>
<totfact> 0.13378762E+01</totfact>
</mgrwt>
</event>
<event>
 6    1  0.1940992E-004  0.3000000E+03  0.7818608E-02  0.1093470E+00
          1   -1    0    0  502    0  0.00000000000E+00  0.00000000000E+00  0.45146037655E+02  0.45146037655E+02  0.00000000000E+00 0.  1.
         13   -1    0    0    0    0 -0.00000000000E+00 -0.00000000000E+00 -0.10000000000E+04  0.10000000000E+04  0.00000000000E+00 0.  1.
    9000005    2    1    2  501    0  0.70005036096E+00 -0.84972187599E+02 -0.72379641282E+03  0.79895839798E+03  0.32746375640E+03 0.  0.
         13    1    3    3    0    0  0.15919000290E+03 -0.48591872409E+02 -0.45868466753E+03  0.48794902532E+03  0.00000000000E+00 0.  1.
          1    1    3    3  501    0 -0.15848995254E+03 -0.36380315190E+02 -0.26511174530E+03  0.31100937266E+03  0.00000000000E+00 0.  1.
         21    1    1    2  502  501 -0.70005036096E+00  0.84972187599E+02 -0.23105754952E+03  0.24618763967E+03  0.00000000000E+00 0.  1.
<mgrwt>
<rscale>  1 0.30000000E+03</rscale>
<asrwt>0</asrwt>
<pdfrwt beam="1">  1        1 0.16416776E+00 0.30000000E+03</pdfrwt>
<pdfrwt beam="2">0</pdfrwt>
<totfact> 0.15260745E+01</totfact>
</mgrwt>
</event>
<event>
 6    1  0.1940992E-004  0.3000000E+03  0.7818608E-02  0.1093470E+00
          1   -1    0    0  502    0  0.00000000000E+00  0.00000000000E+00  0.49150155023E+02  0.49150155023E+02  0.00000000000E+00 0.  1.
         13   -1    0    0    0    0 -0.00000000000E+00 -0.00000000000E+00 -0.10000000000E+04  0.10000000000E+04  0.00000000000E+00 0.  1.
    9000005    2    1    2  501    0  0.24576913181E+02 -0.78567519575E+01 -0.96728224694E+03  0.10185596819E+04  0.31806151465E+03 0.  0.
         13    1    3    3    0    0 -0.95781336401E+02  0.68500273315E+02 -0.74673004522E+03  0.75595774504E+03  0.00000000000E+00 0.  1.
          1    1    3    3  501    0  0.12035824958E+03 -0.76357025273E+02 -0.22055220171E+03  0.26260193684E+03  0.00000000000E+00 0.  1.
         21    1    1    2  502  501 -0.24576913181E+02  0.78567519575E+01  0.16432401961E+02  0.30590473142E+02  0.00000000000E+00 0.  1.
<mgrwt>
<rscale>  1 0.30000000E+03</rscale>
<asrwt>0</asrwt>
<pdfrwt beam="1">  1        1 0.17872821E+00 0.30000000E+03</pdfrwt>
<pdfrwt beam="2">0</pdfrwt>
<totfact> 0.12956798E+01</totfact>
</mgrwt>
</event>
<event>
 6    1  0.1940992E-004  0.3000000E+03  0.7818608E-02  0.1093470E+00
          1   -1    0    0  502    0  0.00000000000E+00  0.00000000000E+00  0.28940164073E+02  0.28940164073E+02  0.00000000000E+00 0.  1.
         13   -1    0    0    0    0 -0.00000000000E+00 -0.00000000000E+00 -0.10000000000E+04  0.10000000000E+04  0.00000000000E+00 0.  1.
    9000005    2    1    2  501    0  0.34428954360E+01  0.27848786288E+02 -0.94179396780E+03  0.98839513399E+03  0.29859948877E+03 0.  0.
         13    1    3    3    0    0  0.13623933242E+03  0.75831134132E+02 -0.56102141569E+03  0.58228562189E+03  0.00000000000E+00 0.  1.
          1    1    3    3  501    0 -0.13279643698E+03 -0.47982347844E+02 -0.38077255211E+03  0.40610951210E+03  0.00000000000E+00 0.  1.
         21    1    1    2  502  501 -0.34428954360E+01 -0.27848786288E+02 -0.29265868129E+02  0.40545030078E+02  0.00000000000E+00 0.  1.
<mgrwt>
<rscale>  1 0.30000000E+03</rscale>
<asrwt>0</asrwt>
<pdfrwt beam="1">  1        1 0.10523718E+00 0.30000000E+03</pdfrwt>
<pdfrwt beam="2">0</pdfrwt>
<totfact> 0.31746122E+01</totfact>
</mgrwt>
</event>
<event>
 6    1  0.1940992E-004  0.3000000E+03  0.7818608E-02  0.1093470E+00
          1   -1    0    0  502    0  0.00000000000E+00  0.00000000000E+00  0.81171903129E+02  0.81171903129E+02  0.00000000000E+00 0.  1.
         13   -1    0    0    0    0 -0.00000000000E+00 -0.00000000000E+00 -0.10000000000E+04  0.10000000000E+04  0.00000000000E+00 0.  1.
    9000005    2    1    2  501    0 -0.23152698813E+02 -0.17655300417E+02 -0.97192253037E+03  0.10206179936E+04  0.31012888713E+03 0.  0.
         13    1    3    3    0    0 -0.11736921507E+03 -0.48507939522E+02 -0.86705495616E+03  0.87630636757E+03  0.00000000000E+00 0.  1.
          3    1    3    3  501    0  0.94216516253E+02  0.30852639106E+02 -0.10486757422E+03  0.14431162599E+03  0.00000000000E+00 0.  1.
         21    1    1    2  502  501  0.23152698813E+02  0.17655300417E+02  0.53094433503E+02  0.60553909569E+02  0.00000000000E+00 0.  1.
<mgrwt>
<rscale>  1 0.30000000E+03</rscale>
<asrwt>0</asrwt>
<pdfrwt beam="1">  1        1 0.29517118E+00 0.30000000E+03</pdfrwt>
<pdfrwt beam="2">0</pdfrwt>
<totfact> 0.36623193E+00</totfact>
</mgrwt>
</event>
<event>
 6    1  0.1940992E-004  0.3000000E+03  0.7818608E-02  0.1093470E+00
          1   -1    0    0  502    0  0.00000000000E+00  0.00000000000E+00  0.51331100149E+02  0.51331100149E+02  0.00000000000E+00 0.  1.
         13   -1    0    0    0    0 -0.00000000000E+00 -0.00000000000E+00 -0.10000000000E+04  0.10000000000E+04  0.00000000000E+00 0.  1.
    9000005    2    1    2  501    0  0.20074303062E+02  0.42649426873E+01 -0.97011256687E+03  0.10216494857E+04  0.31973131203E+03 0.  0.
         13    1    3    3    0    0 -0.10339022363E+03  0.95837025272E+02 -0.26702828978E+03  0.30195758195E+03  0.00000000000E+00 0.  1.
          3    1    3    3  501    0  0.12346452669E+03 -0.91572082585E+02 -0.70308427709E+03  0.71969190377E+03  0.00000000000E+00 0.  1.
         21    1    1    2  502  501 -0.20074303062E+02 -0.42649426873E+01  0.21443667022E+02  0.29681614425E+02  0.00000000000E+00 0. -1.
<mgrwt>
<rscale>  1 0.30000000E+03</rscale>
<asrwt>0</asrwt>
<pdfrwt beam="1">  1        1 0.18665894E+00 0.30000000E+03</pdfrwt>
<pdfrwt beam="2">0</pdfrwt>
<totfact> 0.11864447E+01</totfact>
</mgrwt>
</event>
<event>
 6    1  0.1940992E-004  0.3000000E+03  0.7818608E-02  0.1093470E+00
          1   -1    0    0  502    0  0.00000000000E+00  0.00000000000E+00  0.33226108064E+02  0.33226108064E+02  0.00000000000E+00 0.  1.
         13   -1    0    0    0    0 -0.00000000000E+00 -0.00000000000E+00 -0.10000000000E+04  0.10000000000E+04  0.00000000000E+00 0.  1.
    9000005    2    1    2  501    0  0.97125264182E+00  0.18003523624E+02 -0.96647998579E+03  0.10151940096E+04  0.31017776190E+03 0.  0.
         13    1    3    3    0    0  0.12921618913E+03  0.85976152003E+02 -0.36850512904E+03  0.39985591452E+03  0.00000000000E+00 0.  1.
          3    1    3    3  501    0 -0.12824493648E+03 -0.67972628379E+02 -0.59797485675E+03  0.61533809507E+03  0.00000000000E+00 0.  1.
         21    1    1    2  502  501 -0.97125264182E+00 -0.18003523624E+02 -0.29390614673E+00  0.18032098475E+02  0.00000000000E+00 0.  1.
<mgrwt>
<rscale>  1 0.30000000E+03</rscale>
<asrwt>0</asrwt>
<pdfrwt beam="1">  1        1 0.12082247E+00 0.30000000E+03</pdfrwt>
<pdfrwt beam="2">0</pdfrwt>
<totfact> 0.25719639E+01</totfact>
</mgrwt>
</event>
<event>
 6    1  0.1940992E-004  0.3000000E+03  0.7818608E-02  0.1093470E+00
          1   -1    0    0  502    0  0.00000000000E+00  0.00000000000E+00  0.48694997088E+02  0.48694997088E+02  0.00000000000E+00 0.  1.
         13   -1    0    0    0    0 -0.00000000000E+00 -0.00000000000E+00 -0.10000000000E+04  0.10000000000E+04  0.00000000000E+00 0.  1.
    9000005    2    1    2  501    0  0.17300607565E+02  0.39946412920E+02 -0.95080040820E+03  0.10051601657E+04  0.32315710662E+03 0.  0.
         13    1    3    3    0    0 -0.20018631248E+02  0.17098058189E+03 -0.36264542323E+03  0.40143095043E+03  0.00000000000E+00 0.  1.
          1    1    3    3  501    0  0.37319238813E+02 -0.13103416897E+03 -0.58815498498E+03  0.60372921528E+03  0.00000000000E+00 0.  1.
         21    1    1    2  502  501 -0.17300607565E+02 -0.39946412920E+02 -0.50459470661E+00  0.43534831378E+02  0.00000000000E+00 0.  1.
<mgrwt>
<rscale>  1 0.30000000E+03</rscale>
<asrwt>0</asrwt>
<pdfrwt beam="1">  1        1 0.17707309E+00 0.30000000E+03</pdfrwt>
<pdfrwt beam="2">0</pdfrwt>
<totfact> 0.13198367E+01</totfact>
</mgrwt>
</event>
<event>
 6    1  0.1940992E-004  0.3000000E+03  0.7818608E-02  0.1093470E+00
          1   -1    0    0  502    0  0.00000000000E+00  0.00000000000E+00  0.30948165312E+02  0.30948165312E+02  0.00000000000E+00 0.  1.
         13   -1    0    0    0    0 -0.00000000000E+00 -0.00000000000E+00 -0.10000000000E+04  0.10000000000E+04  0.00000000000E+00 0.  1.
    9000005    2    1    2  501    0 -0.28241773770E+02  0.77173028389E+01 -0.88704611892E+03  0.94387295663E+03  0.32122918083E+03 0.  0.
         13    1    3    3    0    0 -0.29742770317E+02 -0.11654948831E+03 -0.13166455843E+03  0.17833668034E+03  0.00000000000E+00 0.  1.
          1    1    3    3  501    0  0.15009965468E+01  0.12426679115E+03 -0.75538156050E+03  0.76553627629E+03  0.00000000000E+00 0.  1.
         21    1    1    2  502  501  0.28241773770E+02 -0.77173028389E+01 -0.82005715766E+02  0.87075208682E+02  0.00000000000E+00 0.  1.
<mgrwt>
<rscale>  1 0.30000000E+03</rscale>
<asrwt>0</asrwt>
<pdfrwt beam="1">  1        1 0.11253902E+00 0.30000000E+03</pdfrwt>
<pdfrwt beam="2">0</pdfrwt>
<totfact> 0.28699381E+01</totfact>
</mgrwt>
</event>
<event>
 6    1  0.1940992E-004  0.3000000E+03  0.7818608E-02  0.1093470E+00
          1   -1    0    0  502    0  0.00000000000E+00  0.00000000000E+00  0.63554172904E+02  0.63554172904E+02  0.00000000000E+00 0.  1.
         13   -1    0    0    0    0 -0.00000000000E+00 -0.00000000000E+00 -0.10000000000E+04  0.10000000000E+04  0.00000000000E+00 0.  1.
    9000005    2    1    2  501    0  0.49928365418E+02  0.32388565031E+02 -0.94965020844E+03  0.10025933945E+04  0.31593691692E+03 0.  0.
         13    1    3    3    0    0 -0.55262697334E+02  0.15210897748E+03 -0.49971038802E+03  0.52526334219E+03  0.00000000000E+00 0.  1.
          1    1    3    3  501    0  0.10519106275E+03 -0.11972041245E+03 -0.44993982041E+03  0.47733005230E+03  0.00000000000E+00 0.  1.
         21    1    1    2  502  501 -0.49928365418E+02 -0.32388565031E+02  0.13204381341E+02  0.60960778413E+02  0.00000000000E+00 0.  1.
<mgrwt>
<rscale>  1 0.30000000E+03</rscale>
<asrwt>0</asrwt>
<pdfrwt beam="1">  1        1 0.23110657E+00 0.30000000E+03</pdfrwt>
<pdfrwt beam="2">0</pdfrwt>
<totfact> 0.73126759E+00</totfact>
</mgrwt>
</event>
<event>
 6    1  0.1940992E-004  0.3000000E+03  0.7818608E-02  0.1093470E+00
          1   -1    0    0  502    0  0.00000000000E+00  0.00000000000E+00  0.33482233371E+02  0.33482233371E+02  0.00000000000E+00 0.  1.
         13   -1    0    0    0    0 -0.00000000000E+00 -0.00000000000E+00 -0.10000000000E+04  0.10000000000E+04  0.00000000000E+00 0.  1.
    9000005    2    1    2  501    0  0.14723728614E+02 -0.11622934072E+02 -0.95868215508E+03  0.10131530035E+04  0.32719360195E+03 0.  0.
         13    1    3    3    0    0  0.15118311427E+03 -0.18506765347E+02 -0.73833889437E+03  0.75388537414E+03  0.00000000000E+00 0.  1.
          1    1    3    3  501    0 -0.13645938566E+03  0.68838312750E+01 -0.22034326071E+03  0.25926762931E+03  0.00000000000E+00 0.  1.
         21    1    1    2  502  501 -0.14723728614E+02  0.11622934072E+02 -0.78356115477E+01  0.20329229918E+02  0.00000000000E+00 0.  1.
<mgrwt>
<rscale>  1 0.30000000E+03</rscale>
<asrwt>0</asrwt>
<pdfrwt beam="1">  1        1 0.12175383E+00 0.30000000E+03</pdfrwt>
<pdfrwt beam="2">0</pdfrwt>
<totfact> 0.25411360E+01</totfact>
</mgrwt>
</event>
<event>
 6    1  0.1940992E-004  0.3000000E+03  0.7818608E-02  0.1093470E+00
          1   -1    0    0  502    0  0.00000000000E+00  0.00000000000E+00  0.49354336620E+02  0.49354336620E+02  0.00000000000E+00 0.  1.
         13   -1    0    0    0    0 -0.00000000000E+00 -0.00000000000E+00 -0.10000000000E+04  0.10000000000E+04  0.00000000000E+00 0.  1.
    9000005    2    1    2  501    0 -0.45736237703E+02 -0.29379109288E+02 -0.93675351534E+03  0.99324794412E+03  0.32569831823E+03 0.  0.
         13    1    3    3    0    0 -0.81434124807E+02  0.11594520149E+03 -0.22470604908E+03  0.26564565670E+03  0.00000000000E+00 0.  1.
          1    1    3    3  501    0  0.35697887104E+02 -0.14532431078E+03 -0.71204746627E+03  0.72760228743E+03  0.00000000000E+00 0.  1.
         21    1    1    2  502  501  0.45736237703E+02  0.29379109288E+02 -0.13892148036E+02  0.56106392495E+02  0.00000000000E+00 0.  1.
<mgrwt>
<rscale>  1 0.30000000E+03</rscale>
<asrwt>0</asrwt>
<pdfrwt beam="1">  1        1 0.17947069E+00 0.30000000E+03</pdfrwt>
<pdfrwt beam="2">0</pdfrwt>
<totfact> 0.12849999E+01</totfact>
</mgrwt>
</event>
<event>
 6    1  0.1940992E-004  0.3000000E+03  0.7818608E-02  0.1093470E+00
          1   -1    0    0  502    0  0.00000000000E+00  0.00000000000E+00  0.27777608251E+02  0.27777608251E+02  0.00000000000E+00 0.  1.
         13   -1    0    0    0    0 -0.00000000000E+00 -0.00000000000E+00 -0.10000000000E+04  0.10000000000E+04  0.00000000000E+00 0.  1.
    9000005    2    1    2  501    0  0.38762563765E+01 -0.87948312220E+01 -0.94218268705E+03  0.99623781944E+03  0.32355710885E+03 0.  0.
         13    1    3    3    0    0 -0.13755596117E+03  0.71599814944E+02 -0.36525603032E+03  0.39681247919E+03  0.00000000000E+00 0.  1.
          3    1    3    3  501    0  0.14143221755E+03 -0.80394646166E+02 -0.57692665673E+03  0.59942534026E+03  0.00000000000E+00 0.  1.
         21    1    1    2  502  501 -0.38762563765E+01  0.87948312220E+01 -0.30039704699E+02  0.31539788809E+02  0.00000000000E+00 0. -1.
<mgrwt>
<rscale>  1 0.30000000E+03</rscale>
<asrwt>0</asrwt>
<pdfrwt beam="1">  1        1 0.10100970E+00 0.30000000E+03</pdfrwt>
<pdfrwt beam="2">0</pdfrwt>
<totfact> 0.33727098E+01</totfact>
</mgrwt>
</event>
<event>
 6    1  0.1940992E-004  0.3000000E+03  0.7818608E-02  0.1093470E+00
          1   -1    0    0  502    0  0.00000000000E+00  0.00000000000E+00  0.41405556553E+02  0.41405556553E+02  0.00000000000E+00 0.  1.
         13   -1    0    0    0    0 -0.00000000000E+00 -0.00000000000E+00 -0.10000000000E+04  0.10000000000E+04  0.00000000000E+00 0.  1.
    9000005    2    1    2  501    0 -0.25416639045E+02 -0.32200024436E+02 -0.93199980755E+03  0.99251668489E+03  0.33879622400E+03 0.  0.
         13    1    3    3    0    0 -0.14637167564E+03 -0.45242538297E+02 -0.20780891127E+03  0.25817842339E+03  0.00000000000E+00 0.  1.
          3    1    3    3  501    0  0.12095503659E+03  0.13042513861E+02 -0.72419089628E+03  0.73433826150E+03  0.00000000000E+00 0.  1.
         21    1    1    2  502  501  0.25416639045E+02  0.32200024436E+02 -0.26594635892E+02  0.48888871661E+02  0.00000000000E+00 0.  1.
<mgrwt>
<rscale>  1 0.30000000E+03</rscale>
<asrwt>0</asrwt>
<pdfrwt beam="1">  1        1 0.15056598E+00 0.30000000E+03</pdfrwt>
<pdfrwt beam="2">0</pdfrwt>
<totfact> 0.17846394E+01</totfact>
</mgrwt>
</event>
<event>
 6    1  0.1940992E-004  0.3000000E+03  0.7818608E-02  0.1093470E+00
          1   -1    0    0  502    0  0.00000000000E+00  0.00000000000E+00  0.77301966566E+02  0.77301966566E+02  0.00000000000E+00 0.  1.
         13   -1    0    0    0    0 -0.00000000000E+00 -0.00000000000E+00 -0.10000000000E+04  0.10000000000E+04  0.00000000000E+00 0.  1.
    9000005    2    1    2  501    0  0.87004526255E+02 -0.11763840877E+02 -0.92424675589E+03  0.98949209194E+03  0.34227818903E+03 0.  0.
         13    1    3    3    0    0  0.21926680258E+03 -0.19381901326E+02 -0.60782295586E+03  0.64645365996E+03  0.00000000000E+00 0.  1.
          1    1    3    3  501    0 -0.13226227632E+03  0.76180604490E+01 -0.31642380004E+03  0.34303843198E+03  0.00000000000E+00 0.  1.
         21    1    1    2  502  501 -0.87004526255E+02  0.11763840877E+02  0.15487224589E+01  0.87809874629E+02  0.00000000000E+00 0. -1.
<mgrwt>
<rscale>  1 0.30000000E+03</rscale>
<asrwt>0</asrwt>
<pdfrwt beam="1">  1        1 0.28109865E+00 0.30000000E+03</pdfrwt>
<pdfrwt beam="2">0</pdfrwt>
<totfact> 0.42672158E+00</totfact>
</mgrwt>
</event>
<event>
 6    1  0.1940992E-004  0.3000000E+03  0.7818608E-02  0.1093470E+00
          1   -1    0    0  502    0  0.00000000000E+00  0.00000000000E+00  0.29838753940E+02  0.29838753940E+02  0.00000000000E+00 0.  1.
         13   -1    0    0    0    0 -0.00000000000E+00 -0.00000000000E+00 -0.10000000000E+04  0.10000000000E+04  0.00000000000E+00 0.  1.
    9000005    2    1    2  501    0  0.10548707028E+02 -0.53496926828E+00 -0.96390651676E+03  0.10175634515E+04  0.32589575527E+03 0.  0.
         13    1    3    3    0    0 -0.73284121330E+02 -0.66391157508E+02 -0.79843026129E+02  0.12709546434E+03  0.00000000000E+00 0.  1.
          3    1    3    3  501    0  0.83832828358E+02  0.65856188240E+02 -0.88406349063E+03  0.89046798713E+03  0.00000000000E+00 0.  1.
         21    1    1    2  502  501 -0.10548707028E+02  0.53496926828E+00 -0.62547293024E+01  0.12275302470E+02  0.00000000000E+00 0.  1.
<mgrwt>
<rscale>  1 0.30000000E+03</rscale>
<asrwt>0</asrwt>
<pdfrwt beam="1">  1        1 0.10850479E+00 0.30000000E+03</pdfrwt>
<pdfrwt beam="2">0</pdfrwt>
<totfact> 0.30328315E+01</totfact>
</mgrwt>
</event>
<event>
 6    1  0.1940992E-004  0.3000000E+03  0.7818608E-02  0.1093470E+00
          1   -1    0    0  502    0  0.00000000000E+00  0.00000000000E+00  0.25391242951E+02  0.25391242951E+02  0.00000000000E+00 0.  1.
         13   -1    0    0    0    0 -0.00000000000E+00 -0.00000000000E+00 -0.10000000000E+04  0.10000000000E+04  0.00000000000E+00 0.  1.
    9000005    2    1    2  501    0 -0.49259961099E+01  0.18013759718E+02 -0.94542167645E+03  0.99074089446E+03  0.29562918102E+03 0.  0.
         13    1    3    3    0    0 -0.90361872578E+01 -0.12407374494E+03 -0.66293213864E+03  0.67450349688E+03  0.00000000000E+00 0.  1.
          3    1    3    3  501    0  0.41101911478E+01  0.14208750466E+03 -0.28248953781E+03  0.31623739758E+03  0.00000000000E+00 0.  1.
         21    1    1    2  502  501  0.49259961099E+01 -0.18013759718E+02 -0.29187080599E+02  0.34650348494E+02  0.00000000000E+00 0.  1.
<mgrwt>
<rscale>  1 0.30000000E+03</rscale>
<asrwt>0</asrwt>
<pdfrwt beam="1">  1        1 0.92331987E-01 0.30000000E+03</pdfrwt>
<pdfrwt beam="2">0</pdfrwt>
<totfact> 0.38408179E+01</totfact>
</mgrwt>
</event>
<event>
 6    1  0.1940992E-004  0.3000000E+03  0.7818608E-02  0.1093470E+00
          3   -1    0    0  502    0  0.00000000000E+00  0.00000000000E+00  0.29218994446E+02  0.29218994446E+02  0.00000000000E+00 0.  1.
         13   -1    0    0    0    0 -0.00000000000E+00 -0.00000000000E+00 -0.10000000000E+04  0.10000000000E+04  0.00000000000E+00 0.  1.
    9000005    2    1    2  501    0 -0.64405652056E+01  0.15953297906E+02 -0.94773485312E+03  0.10004594093E+04  0.32003388773E+03 0.  0.
         13    1    3    3    0    0  0.62926755599E+02 -0.11983136888E+03 -0.23140577461E+03  0.26808201368E+03  0.00000000000E+00 0.  1.
          1    1    3    3  501    0 -0.69367320804E+02  0.13578466678E+03 -0.71632907851E+03  0.73237739565E+03  0.00000000000E+00 0.  1.
         21    1    1    2  502  501  0.64405652056E+01 -0.15953297906E+02 -0.23046152430E+02  0.28759585117E+02  0.00000000000E+00 0. -1.
<mgrwt>
<rscale>  1 0.30000000E+03</rscale>
<asrwt>0</asrwt>
<pdfrwt beam="1">  1        3 0.10625111E+00 0.30000000E+03</pdfrwt>
<pdfrwt beam="2">0</pdfrwt>
<totfact> 0.33249602E+00</totfact>
</mgrwt>
</event>
<event>
 6    1  0.1940992E-004  0.3000000E+03  0.7818608E-02  0.1093470E+00
          1   -1    0    0  502    0  0.00000000000E+00  0.00000000000E+00  0.30880978523E+02  0.30880978523E+02  0.00000000000E+00 0.  1.
         13   -1    0    0    0    0 -0.00000000000E+00 -0.00000000000E+00 -0.10000000000E+04  0.10000000000E+04  0.00000000000E+00 0.  1.
    9000005    2    1    2  501    0 -0.17661400612E+02  0.75246242538E+01 -0.95430044274E+03  0.10066294772E+04  0.31975775873E+03 0.  0.
         13    1    3    3    0    0  0.14777059671E+03  0.24702299052E+02 -0.37185152200E+03  0.40089887409E+03  0.00000000000E+00 0.  1.
          1    1    3    3  501    0 -0.16543199733E+03 -0.17177674798E+02 -0.58244892073E+03  0.60573060308E+03  0.00000000000E+00 0.  1.
         21    1    1    2  502  501  0.17661400612E+02 -0.75246242538E+01 -0.14818578741E+02  0.24251501348E+02  0.00000000000E+00 0.  1.
<mgrwt>
<rscale>  1 0.30000000E+03</rscale>
<asrwt>0</asrwt>
<pdfrwt beam="1">  1        1 0.11229470E+00 0.30000000E+03</pdfrwt>
<pdfrwt beam="2">0</pdfrwt>
<totfact> 0.28794458E+01</totfact>
</mgrwt>
</event>
<event>
 6    1  0.1940992E-004  0.3000000E+03  0.7818608E-02  0.1093470E+00
          1   -1    0    0  502    0  0.00000000000E+00  0.00000000000E+00  0.42344330990E+02  0.42344330990E+02  0.00000000000E+00 0.  1.
         13   -1    0    0    0    0 -0.00000000000E+00 -0.00000000000E+00 -0.10000000000E+04  0.10000000000E+04  0.00000000000E+00 0.  1.
    9000005    2    1    2  501    0 -0.66049043016E+01  0.55858007450E+01 -0.93105075386E+03  0.10143684943E+04  0.40250852158E+03 0.  0.
         13    1    3    3    0    0 -0.46087333964E+02 -0.16316073870E+03 -0.19596003180E+03  0.25912507225E+03  0.00000000000E+00 0.  1.
          1    1    3    3  501    0  0.39482429662E+02  0.16874653945E+03 -0.73509072205E+03  0.75524342200E+03  0.00000000000E+00 0.  1.
         21    1    1    2  502  501  0.66049043016E+01 -0.55858007450E+01 -0.26604915153E+02  0.27975836736E+02  0.00000000000E+00 0. -1.
<mgrwt>
<rscale>  1 0.30000000E+03</rscale>
<asrwt>0</asrwt>
<pdfrwt beam="1">  1        1 0.15397971E+00 0.30000000E+03</pdfrwt>
<pdfrwt beam="2">0</pdfrwt>
<totfact> 0.17151285E+01</totfact>
</mgrwt>
</event>
<event>
 6    1  0.1940992E-004  0.3000000E+03  0.7818608E-02  0.1093470E+00
          1   -1    0    0  502    0  0.00000000000E+00  0.00000000000E+00  0.39558084428E+02  0.39558084428E+02  0.00000000000E+00 0.  1.
         13   -1    0    0    0    0 -0.00000000000E+00 -0.00000000000E+00 -0.10000000000E+04  0.10000000000E+04  0.00000000000E+00 0.  1.
    9000005    2    1    2  501    0  0.40255409196E+02  0.57579780633E+02 -0.71568793223E+03  0.78492022104E+03  0.31457051349E+03 0.  0.
         13    1    3    3    0    0 -0.11600235821E+03  0.59760255360E+02 -0.15376454173E+03  0.20167143953E+03  0.00000000000E+00 0.  1.
          3    1    3    3  501    0  0.15625776740E+03 -0.21804747266E+01 -0.56192339050E+03  0.58324878151E+03  0.00000000000E+00 0.  1.
         21    1    1    2  502  501 -0.40255409196E+02 -0.57579780633E+02 -0.24475398334E+03  0.25463786339E+03  0.00000000000E+00 0.  1.
<mgrwt>
<rscale>  1 0.30000000E+03</rscale>
<asrwt>0</asrwt>
<pdfrwt beam="1">  1        1 0.14384788E+00 0.30000000E+03</pdfrwt>
<pdfrwt beam="2">0</pdfrwt>
<totfact> 0.19319345E+01</totfact>
</mgrwt>
</event>
<event>
 6    1  0.1940992E-004  0.3000000E+03  0.7818608E-02  0.1093470E+00
          1   -1    0    0  502    0  0.00000000000E+00  0.00000000000E+00  0.55377625146E+02  0.55377625146E+02  0.00000000000E+00 0.  1.
         13   -1    0    0    0    0 -0.00000000000E+00 -0.00000000000E+00 -0.10000000000E+04  0.10000000000E+04  0.00000000000E+00 0.  1.
    9000005    2    1    2  501    0 -0.11050930404E+02  0.50686440456E+02 -0.94776672737E+03  0.10034052742E+04  0.32537537781E+03 0.  0.
         13    1    3    3    0    0  0.11084137466E+03  0.85769909020E+02 -0.78314018693E+03  0.79558207623E+03  0.00000000000E+00 0.  1.
          3    1    3    3  501    0 -0.12189230507E+03 -0.35083468564E+02 -0.16462654045E+03  0.20782319798E+03  0.00000000000E+00 0.  1.
         21    1    1    2  502  501  0.11050930404E+02 -0.50686440456E+02  0.31443525200E+01  0.51972350935E+02  0.00000000000E+00 0.  1.
<mgrwt>
<rscale>  1 0.30000000E+03</rscale>
<asrwt>0</asrwt>
<pdfrwt beam="1">  1        1 0.20137361E+00 0.30000000E+03</pdfrwt>
<pdfrwt beam="2">0</pdfrwt>
<totfact> 0.10090617E+01</totfact>
</mgrwt>
</event>
<event>
 6    1  0.1940992E-004  0.3000000E+03  0.7818608E-02  0.1093470E+00
          1   -1    0    0  502    0  0.00000000000E+00  0.00000000000E+00  0.33812122287E+02  0.33812122287E+02  0.00000000000E+00 0.  1.
         13   -1    0    0    0    0 -0.00000000000E+00 -0.00000000000E+00 -0.10000000000E+04  0.10000000000E+04  0.00000000000E+00 0.  1.
    9000005    2    1    2  501    0  0.10653454894E+02 -0.58994326334E+00 -0.96784838008E+03  0.10230139094E+04  0.33122972057E+03 0.  0.
         13    1    3    3    0    0 -0.56522780929E+02  0.13055647580E+03 -0.22883377704E+03  0.26945262228E+03  0.00000000000E+00 0.  1.
          3    1    3    3  501    0  0.67176235822E+02 -0.13114641906E+03 -0.73901460304E+03  0.75356128709E+03  0.00000000000E+00 0.  1.
         21    1    1    2  502  501 -0.10653454894E+02  0.58994326334E+00  0.16605023691E+01  0.10798212924E+02  0.00000000000E+00 0.  1.
<mgrwt>
<rscale>  1 0.30000000E+03</rscale>
<asrwt>0</asrwt>
<pdfrwt beam="1">  1        1 0.12295343E+00 0.30000000E+03</pdfrwt>
<pdfrwt beam="2">0</pdfrwt>
<totfact> 0.25021428E+01</totfact>
</mgrwt>
</event>
<event>
 6    1  0.1940992E-004  0.3000000E+03  0.7818608E-02  0.1093470E+00
          1   -1    0    0  502    0  0.00000000000E+00  0.00000000000E+00  0.79025625753E+02  0.79025625753E+02  0.00000000000E+00 0.  1.
         13   -1    0    0    0    0 -0.00000000000E+00 -0.00000000000E+00 -0.10000000000E+04  0.10000000000E+04  0.00000000000E+00 0.  1.
    9000005    2    1    2  501    0  0.13931989907E+01  0.45295487961E+02 -0.96261752079E+03  0.10174807325E+04  0.32646734512E+03 0.  0.
         13    1    3    3    0    0 -0.31437671042E+02 -0.46187829578E+02 -0.90027989532E+03  0.90201193599E+03  0.00000000000E+00 0.  1.
          1    1    3    3  501    0  0.32830870033E+02  0.91483317540E+02 -0.62337625470E+02  0.11546879650E+03  0.00000000000E+00 0.  1.
         21    1    1    2  502  501 -0.13931989907E+01 -0.45295487961E+02  0.41643146540E+02  0.61544893264E+02  0.00000000000E+00 0.  1.
<mgrwt>
<rscale>  1 0.30000000E+03</rscale>
<asrwt>0</asrwt>
<pdfrwt beam="1">  1        1 0.28736652E+00 0.30000000E+03</pdfrwt>
<pdfrwt beam="2">0</pdfrwt>
<totfact> 0.39872032E+00</totfact>
</mgrwt>
</event>
<event>
 6    1  0.1940992E-004  0.3000000E+03  0.7818608E-02  0.1093470E+00
          1   -1    0    0  502    0  0.00000000000E+00  0.00000000000E+00  0.38219922319E+02  0.38219922319E+02  0.00000000000E+00 0.  1.
         13   -1    0    0    0    0 -0.00000000000E+00 -0.00000000000E+00 -0.10000000000E+04  0.10000000000E+04  0.00000000000E+00 0.  1.
    9000005    2    1    2  501    0  0.26446523863E+02 -0.24997922492E+02 -0.93436840186E+03  0.99265990997E+03  0.33317423630E+03 0.  0.
         13    1    3    3    0    0 -0.57968650158E+02 -0.15615553441E+03 -0.61620443360E+03  0.63832031091E+03  0.00000000000E+00 0.  1.
          3    1    3    3  501    0  0.84415174021E+02  0.13115761192E+03 -0.31816396825E+03  0.35433959906E+03  0.00000000000E+00 0.  1.
         21    1    1    2  502  501 -0.26446523863E+02  0.24997922492E+02 -0.27411675825E+02  0.45560012345E+02  0.00000000000E+00 0.  1.
<mgrwt>
<rscale>  1 0.30000000E+03</rscale>
<asrwt>0</asrwt>
<pdfrwt beam="1">  1        1 0.13898183E+00 0.30000000E+03</pdfrwt>
<pdfrwt beam="2">0</pdfrwt>
<totfact> 0.20482917E+01</totfact>
</mgrwt>
</event>
<event>
 6    1  0.1940992E-004  0.3000000E+03  0.7818608E-02  0.1093470E+00
          1   -1    0    0  502    0  0.00000000000E+00  0.00000000000E+00  0.32096158091E+02  0.32096158091E+02  0.00000000000E+00 0.  1.
         13   -1    0    0    0    0 -0.00000000000E+00 -0.00000000000E+00 -0.10000000000E+04  0.10000000000E+04  0.00000000000E+00 0.  1.
    9000005    2    1    2  501    0  0.89643881237E+01 -0.51769463783E+01 -0.97148859402E+03  0.10211411832E+04  0.31437567750E+03 0.  0.
         13    1    3    3    0    0 -0.11494467748E+03  0.25537845434E+01 -0.80653198489E+03  0.81468561013E+03  0.00000000000E+00 0.  1.
          3    1    3    3  501    0  0.12390906560E+03 -0.77307309217E+01 -0.16495660912E+03  0.20645557302E+03  0.00000000000E+00 0.  1.
         21    1    1    2  502  501 -0.89643881237E+01  0.51769463783E+01  0.35847521056E+01  0.10954974938E+02  0.00000000000E+00 0.  1.
<mgrwt>
<rscale>  1 0.30000000E+03</rscale>
<asrwt>0</asrwt>
<pdfrwt beam="1">  1        1 0.11671355E+00 0.30000000E+03</pdfrwt>
<pdfrwt beam="2">0</pdfrwt>
<totfact> 0.27141334E+01</totfact>
</mgrwt>
</event>
<event>
 6    1  0.1940992E-004  0.3000000E+03  0.7818608E-02  0.1093470E+00
          3   -1    0    0  502    0  0.00000000000E+00  0.00000000000E+00  0.32302653734E+02  0.32302653734E+02  0.00000000000E+00 0.  1.
         13   -1    0    0    0    0 -0.00000000000E+00 -0.00000000000E+00 -0.10000000000E+04  0.10000000000E+04  0.00000000000E+00 0.  1.
    9000005    2    1    2  501    0  0.10585700341E+02 -0.81757465424E+01 -0.96520808328E+03  0.10186976431E+04  0.32548324721E+03 0.  0.
         13    1    3    3    0    0 -0.16698658005E+02 -0.16411874255E+03 -0.55510453269E+03  0.57909830689E+03  0.00000000000E+00 0.  1.
          3    1    3    3  501    0  0.27284358346E+02  0.15594299601E+03 -0.41010355059E+03  0.43959933624E+03  0.00000000000E+00 0.  1.
         21    1    1    2  502  501 -0.10585700341E+02  0.81757465424E+01 -0.24892629858E+01  0.13605010601E+02  0.00000000000E+00 0.  1.
<mgrwt>
<rscale>  1 0.30000000E+03</rscale>
<asrwt>0</asrwt>
<pdfrwt beam="1">  1        3 0.11746444E+00 0.30000000E+03</pdfrwt>
<pdfrwt beam="2">0</pdfrwt>
<totfact> 0.24746636E+00</totfact>
</mgrwt>
</event>
<event>
 6    1  0.1940992E-004  0.3000000E+03  0.7818608E-02  0.1093470E+00
          1   -1    0    0  502    0  0.00000000000E+00  0.00000000000E+00  0.29181843251E+02  0.29181843251E+02  0.00000000000E+00 0.  1.
         13   -1    0    0    0    0 -0.00000000000E+00 -0.00000000000E+00 -0.10000000000E+04  0.10000000000E+04  0.00000000000E+00 0.  1.
    9000005    2    1    2  501    0  0.20702493026E+01 -0.17380893018E+02 -0.95269331287E+03  0.10039847930E+04  0.31631398147E+03 0.  0.
         13    1    3    3    0    0 -0.48898434309E+02 -0.15515186514E+03 -0.60600459160E+03  0.62745894143E+03  0.00000000000E+00 0.  1.
          3    1    3    3  501    0  0.50968683612E+02  0.13777097212E+03 -0.34668872127E+03  0.37652585161E+03  0.00000000000E+00 0.  1.
         21    1    1    2  502  501 -0.20702493026E+01  0.17380893018E+02 -0.18124843875E+02  0.25197050219E+02  0.00000000000E+00 0. -1.
<mgrwt>
<rscale>  1 0.30000000E+03</rscale>
<asrwt>0</asrwt>
<pdfrwt beam="1">  1        1 0.10611602E+00 0.30000000E+03</pdfrwt>
<pdfrwt beam="2">0</pdfrwt>
<totfact> 0.31355579E+01</totfact>
</mgrwt>
</event>
<event>
 6    1  0.1940992E-004  0.3000000E+03  0.7818608E-02  0.1093470E+00
          1   -1    0    0  502    0  0.00000000000E+00  0.00000000000E+00  0.20531866290E+02  0.20531866290E+02  0.00000000000E+00 0.  1.
         13   -1    0    0    0    0 -0.00000000000E+00 -0.00000000000E+00 -0.10000000000E+04  0.10000000000E+04  0.00000000000E+00 0.  1.
    9000005    2    1    2  501    0 -0.75059761725E+00 -0.11688120434E+02 -0.97162187982E+03  0.10064343752E+04  0.26215243391E+03 0.  0.
         13    1    3    3    0    0 -0.40514008444E+02  0.92555079366E+02 -0.17527193479E+03  0.20230689242E+03  0.00000000000E+00 0.  1.
          1    1    3    3  501    0  0.39763410826E+02 -0.10424319980E+03 -0.79634994503E+03  0.80412748273E+03  0.00000000000E+00 0.  1.
         21    1    1    2  502  501  0.75059761725E+00  0.11688120434E+02 -0.78462538937E+01  0.14097491132E+02  0.00000000000E+00 0.  1.
<mgrwt>
<rscale>  1 0.30000000E+03</rscale>
<asrwt>0</asrwt>
<pdfrwt beam="1">  1        1 0.74661489E-01 0.30000000E+03</pdfrwt>
<pdfrwt beam="2">0</pdfrwt>
<totfact> 0.51643903E+01</totfact>
</mgrwt>
</event>
<event>
 6    1  0.1940992E-004  0.3000000E+03  0.7818608E-02  0.1093470E+00
          1   -1    0    0  502    0  0.00000000000E+00  0.00000000000E+00  0.32044516444E+02  0.32044516444E+02  0.00000000000E+00 0.  1.
         13   -1    0    0    0    0 -0.00000000000E+00 -0.00000000000E+00 -0.10000000000E+04  0.10000000000E+04  0.00000000000E+00 0.  1.
    9000005    2    1    2  501    0  0.10191913871E+02 -0.53140772446E+01 -0.96778021339E+03  0.10205490719E+04  0.32371245299E+03 0.  0.
         13    1    3    3    0    0  0.13363159507E+03  0.26022029748E+02 -0.79123693353E+03  0.80286389520E+03  0.00000000000E+00 0.  1.
          1    1    3    3  501    0 -0.12343968120E+03 -0.31336106993E+02 -0.17654327986E+03  0.21768517671E+03  0.00000000000E+00 0.  1.
         21    1    1    2  502  501 -0.10191913871E+02  0.53140772446E+01 -0.17527016273E+00  0.11495444530E+02  0.00000000000E+00 0.  1.
<mgrwt>
<rscale>  1 0.30000000E+03</rscale>
<asrwt>0</asrwt>
<pdfrwt beam="1">  1        1 0.11652576E+00 0.30000000E+03</pdfrwt>
<pdfrwt beam="2">0</pdfrwt>
<totfact> 0.27208847E+01</totfact>
</mgrwt>
</event>
<event>
 6    1  0.1940992E-004  0.3000000E+03  0.7818608E-02  0.1093470E+00
          1   -1    0    0  502    0  0.00000000000E+00  0.00000000000E+00  0.34233763085E+02  0.34233763085E+02  0.00000000000E+00 0.  1.
         13   -1    0    0    0    0 -0.00000000000E+00 -0.00000000000E+00 -0.10000000000E+04  0.10000000000E+04  0.00000000000E+00 0.  1.
    9000005    2    1    2  501    0 -0.16019920369E+02 -0.40037393748E+01 -0.96233364732E+03  0.10173681042E+04  0.32966519825E+03 0.  0.
         13    1    3    3    0    0  0.10262235328E+03 -0.12739678105E+02 -0.84139517981E+03  0.84772607333E+03  0.00000000000E+00 0.  1.
          1    1    3    3  501    0 -0.11864227364E+03  0.87359387307E+01 -0.12093846751E+03  0.16964203089E+03  0.00000000000E+00 0.  1.
         21    1    1    2  502  501  0.16019920369E+02  0.40037393748E+01 -0.34325895908E+01  0.16865658864E+02  0.00000000000E+00 0.  1.
<mgrwt>
<rscale>  1 0.30000000E+03</rscale>
<asrwt>0</asrwt>
<pdfrwt beam="1">  1        1 0.12448667E+00 0.30000000E+03</pdfrwt>
<pdfrwt beam="2">0</pdfrwt>
<totfact> 0.24534311E+01</totfact>
</mgrwt>
</event>
<event>
 6    1  0.1940992E-004  0.3000000E+03  0.7818608E-02  0.1093470E+00
          1   -1    0    0  502    0  0.00000000000E+00  0.00000000000E+00  0.30928294578E+02  0.30928294578E+02  0.00000000000E+00 0.  1.
         13   -1    0    0    0    0 -0.00000000000E+00 -0.00000000000E+00 -0.10000000000E+04  0.10000000000E+04  0.00000000000E+00 0.  1.
    9000005    2    1    2  501    0  0.56512127238E+01 -0.12237048027E+02 -0.96291867827E+03  0.10161113687E+04  0.32417318068E+03 0.  0.
         13    1    3    3    0    0  0.55012903740E+02  0.14225503761E+03 -0.34402067053E+03  0.37631520970E+03  0.00000000000E+00 0.  1.
          3    1    3    3  501    0 -0.49361691016E+02 -0.15449208564E+03 -0.61889800774E+03  0.63979615898E+03  0.00000000000E+00 0.  1.
         21    1    1    2  502  501 -0.56512127238E+01  0.12237048027E+02 -0.61530271541E+01  0.14816925890E+02  0.00000000000E+00 0.  1.
<mgrwt>
<rscale>  1 0.30000000E+03</rscale>
<asrwt>0</asrwt>
<pdfrwt beam="1">  1        1 0.11246676E+00 0.30000000E+03</pdfrwt>
<pdfrwt beam="2">0</pdfrwt>
<totfact> 0.28727453E+01</totfact>
</mgrwt>
</event>
<event>
 6    1  0.1940992E-004  0.3000000E+03  0.7818608E-02  0.1093470E+00
          1   -1    0    0  502    0  0.00000000000E+00  0.00000000000E+00  0.36252630795E+02  0.36252630795E+02  0.00000000000E+00 0.  1.
         13   -1    0    0    0    0 -0.00000000000E+00 -0.00000000000E+00 -0.10000000000E+04  0.10000000000E+04  0.00000000000E+00 0.  1.
    9000005    2    1    2  501    0 -0.15034663403E+02 -0.51644979260E+01 -0.96463699012E+03  0.10203308040E+04  0.33211099617E+03 0.  0.
         13    1    3    3    0    0 -0.16743983431E+02  0.59013489345E+02 -0.95313611836E+03  0.95510806354E+03  0.00000000000E+00 0.  1.
          1    1    3    3  501    0  0.17093200279E+01 -0.64177987271E+02 -0.11500871762E+02  0.65222740485E+02  0.00000000000E+00 0.  1.
         21    1    1    2  502  501  0.15034663403E+02  0.51644979260E+01  0.88962091903E+00  0.15921826775E+02  0.00000000000E+00 0.  1.
<mgrwt>
<rscale>  1 0.30000000E+03</rscale>
<asrwt>0</asrwt>
<pdfrwt beam="1">  1        1 0.13182803E+00 0.30000000E+03</pdfrwt>
<pdfrwt beam="2">0</pdfrwt>
<totfact> 0.22363151E+01</totfact>
</mgrwt>
</event>
<event>
 6    1  0.1940992E-004  0.3000000E+03  0.7818608E-02  0.1093470E+00
          1   -1    0    0  502    0  0.00000000000E+00  0.00000000000E+00  0.31432040183E+02  0.31432040183E+02  0.00000000000E+00 0.  1.
         13   -1    0    0    0    0 -0.00000000000E+00 -0.00000000000E+00 -0.10000000000E+04  0.10000000000E+04  0.00000000000E+00 0.  1.
    9000005    2    1    2  501    0  0.79663633515E+01 -0.17649054776E+02 -0.95989636846E+03  0.10102153351E+04  0.31425949934E+03 0.  0.
         13    1    3    3    0    0  0.95651267931E+01  0.13899094064E+03 -0.28306573132E+03  0.31549355220E+03  0.00000000000E+00 0.  1.
          1    1    3    3  501    0 -0.15987634417E+01 -0.15663999542E+03 -0.67683063714E+03  0.69472178286E+03  0.00000000000E+00 0.  1.
         21    1    1    2  502  501 -0.79663633515E+01  0.17649054776E+02 -0.86715913529E+01  0.21216705119E+02  0.00000000000E+00 0.  1.
<mgrwt>
<rscale>  1 0.30000000E+03</rscale>
<asrwt>0</asrwt>
<pdfrwt beam="1">  1        1 0.11429857E+00 0.30000000E+03</pdfrwt>
<pdfrwt beam="2">0</pdfrwt>
<totfact> 0.28027694E+01</totfact>
</mgrwt>
</event>
<event>
 6    1  0.1940992E-004  0.3000000E+03  0.7818608E-02  0.1093470E+00
          3   -1    0    0  502    0  0.00000000000E+00  0.00000000000E+00  0.27157136514E+02  0.27157136514E+02  0.00000000000E+00 0.  1.
         13   -1    0    0    0    0 -0.00000000000E+00 -0.00000000000E+00 -0.10000000000E+04  0.10000000000E+04  0.00000000000E+00 0.  1.
    9000005    2    1    2  501    0  0.19718548176E+02 -0.35387180765E+01 -0.91307656855E+03  0.96412259299E+03  0.30890485687E+03 0.  0.
         13    1    3    3    0    0  0.80944219906E+02  0.42589003633E+02 -0.87270359213E+03  0.87748353243E+03  0.00000000000E+00 0.  1.
          3    1    3    3  501    0 -0.61225671730E+02 -0.46127721710E+02 -0.40372976423E+02  0.86639060557E+02  0.00000000000E+00 0.  1.
         21    1    1    2  502  501 -0.19718548176E+02  0.35387180765E+01 -0.59766294932E+02  0.63034543527E+02  0.00000000000E+00 0.  1.
<mgrwt>
<rscale>  1 0.30000000E+03</rscale>
<asrwt>0</asrwt>
<pdfrwt beam="1">  1        3 0.98753432E-01 0.30000000E+03</pdfrwt>
<pdfrwt beam="2">0</pdfrwt>
<totfact> 0.40473419E+00</totfact>
</mgrwt>
</event>
<event>
 6    1  0.1940992E-004  0.3000000E+03  0.7818608E-02  0.1093470E+00
          1   -1    0    0  502    0  0.00000000000E+00  0.00000000000E+00  0.31118224920E+02  0.31118224920E+02  0.00000000000E+00 0.  1.
         13   -1    0    0    0    0 -0.00000000000E+00 -0.00000000000E+00 -0.10000000000E+04  0.10000000000E+04  0.00000000000E+00 0.  1.
    9000005    2    1    2  501    0 -0.20456250532E+02  0.54437779050E+00 -0.93397505569E+03  0.99065548166E+03  0.32965151930E+03 0.  0.
         13    1    3    3    0    0 -0.16428124041E+02  0.14957333242E+03 -0.67740791010E+03  0.69391897344E+03  0.00000000000E+00 0.  1.
          1    1    3    3  501    0 -0.40281264904E+01 -0.14902895463E+03 -0.25656714558E+03  0.29673650823E+03  0.00000000000E+00 0.  1.
         21    1    1    2  502  501  0.20456250532E+02 -0.54437779050E+00 -0.34906719393E+02  0.40462743256E+02  0.00000000000E+00 0. -1.
<mgrwt>
<rscale>  1 0.30000000E+03</rscale>
<asrwt>0</asrwt>
<pdfrwt beam="1">  1        1 0.11315742E+00 0.30000000E+03</pdfrwt>
<pdfrwt beam="2">0</pdfrwt>
<totfact> 0.28460727E+01</totfact>
</mgrwt>
</event>
<event>
 6    1  0.1940992E-004  0.3000000E+03  0.7818608E-02  0.1093470E+00
          1   -1    0    0  502    0  0.00000000000E+00  0.00000000000E+00  0.40717515727E+02  0.40717515727E+02  0.00000000000E+00 0.  1.
         13   -1    0    0    0    0 -0.00000000000E+00 -0.00000000000E+00 -0.10000000000E+04  0.10000000000E+04  0.00000000000E+00 0.  1.
    9000005    2    1    2  501    0 -0.16535018184E+02  0.22100947996E+02 -0.96315274023E+03  0.10128457090E+04  0.31213998544E+03 0.  0.
         13    1    3    3    0    0  0.11881260222E+03  0.95996317415E+02 -0.58124444943E+03  0.60097989766E+03  0.00000000000E+00 0.  1.
          3    1    3    3  501    0 -0.13534762040E+03 -0.73895369419E+02 -0.38190829080E+03  0.41186581134E+03  0.00000000000E+00 0.  1.
         21    1    1    2  502  501  0.16535018184E+02 -0.22100947996E+02  0.38702559579E+01  0.27871806720E+02  0.00000000000E+00 0.  1.
<mgrwt>
<rscale>  1 0.30000000E+03</rscale>
<asrwt>0</asrwt>
<pdfrwt beam="1">  1        1 0.14806401E+00 0.30000000E+03</pdfrwt>
<pdfrwt beam="2">0</pdfrwt>
<totfact> 0.18377965E+01</totfact>
</mgrwt>
</event>
<event>
 6    1  0.1940992E-004  0.3000000E+03  0.7818608E-02  0.1093470E+00
          1   -1    0    0  502    0  0.00000000000E+00  0.00000000000E+00  0.40449683021E+02  0.40449683021E+02  0.00000000000E+00 0.  1.
         13   -1    0    0    0    0 -0.00000000000E+00 -0.00000000000E+00 -0.10000000000E+04  0.10000000000E+04  0.00000000000E+00 0.  1.
    9000005    2    1    2  501    0 -0.13608863443E+02 -0.14000652834E+02 -0.96986476155E+03  0.10183678531E+04  0.30992613504E+03 0.  0.
         13    1    3    3    0    0  0.69308254579E+02 -0.20142574358E+02 -0.35721774362E+02  0.80531997480E+02  0.00000000000E+00 0.  1.
          1    1    3    3  501    0 -0.82917118021E+02  0.61419215246E+01 -0.93414298719E+03  0.93783585566E+03  0.00000000000E+00 0.  1.
         21    1    1    2  502  501  0.13608863443E+02  0.14000652834E+02  0.10314444569E+02  0.22081829877E+02  0.00000000000E+00 0.  1.
<mgrwt>
<rscale>  1 0.30000000E+03</rscale>
<asrwt>0</asrwt>
<pdfrwt beam="1">  1        1 0.14709007E+00 0.30000000E+03</pdfrwt>
<pdfrwt beam="2">0</pdfrwt>
<totfact> 0.18590219E+01</totfact>
</mgrwt>
</event>
<event>
 6    1  0.1940992E-004  0.3000000E+03  0.7818608E-02  0.1093470E+00
          1   -1    0    0  502    0  0.00000000000E+00  0.00000000000E+00  0.45108555289E+02  0.45108555289E+02  0.00000000000E+00 0.  1.
         13   -1    0    0    0    0 -0.00000000000E+00 -0.00000000000E+00 -0.10000000000E+04  0.10000000000E+04  0.00000000000E+00 0.  1.
    9000005    2    1    2  501    0  0.44381152695E+01 -0.93038481546E+01 -0.97167710383E+03  0.10254104130E+04  0.32742000933E+03 0.  0.
         13    1    3    3    0    0  0.14927916778E+03  0.60652140093E+02 -0.39183563129E+03  0.42367217749E+03  0.00000000000E+00 0.  1.
          3    1    3    3  501    0 -0.14484105251E+03 -0.69955988247E+02 -0.57984147255E+03  0.60173823550E+03  0.00000000000E+00 0.  1.
         21    1    1    2  502  501 -0.44381152695E+01  0.93038481546E+01  0.16785659123E+02  0.19698142294E+02  0.00000000000E+00 0. -1.
<mgrwt>
<rscale>  1 0.30000000E+03</rscale>
<asrwt>0</asrwt>
<pdfrwt beam="1">  1        1 0.16403146E+00 0.30000000E+03</pdfrwt>
<pdfrwt beam="2">0</pdfrwt>
<totfact> 0.15284384E+01</totfact>
</mgrwt>
</event>
<event>
 6    1  0.1940992E-004  0.3000000E+03  0.7818608E-02  0.1093470E+00
          1   -1    0    0  502    0  0.00000000000E+00  0.00000000000E+00  0.42912782125E+02  0.42912782125E+02  0.00000000000E+00 0.  1.
         13   -1    0    0    0    0 -0.00000000000E+00 -0.00000000000E+00 -0.10000000000E+04  0.10000000000E+04  0.00000000000E+00 0.  1.
    9000005    2    1    2  501    0  0.56973710410E+02 -0.10388474282E+02 -0.91281914934E+03  0.97001843415E+03  0.32302173162E+03 0.  0.
         13    1    3    3    0    0 -0.10232712433E+03  0.80903833895E+02 -0.24677991248E+03  0.27913544368E+03  0.00000000000E+00 0.  1.
          1    1    3    3  501    0  0.15930083474E+03 -0.91292308176E+02 -0.66603923686E+03  0.69088299047E+03  0.00000000000E+00 0.  1.
         21    1    1    2  502  501 -0.56973710410E+02  0.10388474282E+02 -0.44268068531E+02  0.72894347979E+02  0.00000000000E+00 0.  1.
<mgrwt>
<rscale>  1 0.30000000E+03</rscale>
<asrwt>0</asrwt>
<pdfrwt beam="1">  1        1 0.15604681E+00 0.30000000E+03</pdfrwt>
<pdfrwt beam="2">0</pdfrwt>
<totfact> 0.16746312E+01</totfact>
</mgrwt>
</event>
<event>
 6    1  0.1940992E-004  0.3000000E+03  0.7818608E-02  0.1093470E+00
          1   -1    0    0  502    0  0.00000000000E+00  0.00000000000E+00  0.39952932662E+02  0.39952932662E+02  0.00000000000E+00 0.  1.
         13   -1    0    0    0    0 -0.00000000000E+00 -0.00000000000E+00 -0.10000000000E+04  0.10000000000E+04  0.00000000000E+00 0.  1.
    9000005    2    1    2  501    0  0.25996995048E+01 -0.27456285090E+02 -0.96908971805E+03  0.10109292258E+04  0.28650028254E+03 0.  0.
         13    1    3    3    0    0  0.68719111377E+02  0.44064853884E+02 -0.72851230016E+02  0.10941357014E+03  0.00000000000E+00 0.  1.
          3    1    3    3  501    0 -0.66119411872E+02 -0.71521138975E+02 -0.89623848804E+03  0.90151565565E+03  0.00000000000E+00 0.  1.
         21    1    1    2  502  501 -0.25996995048E+01  0.27456285090E+02  0.90426507150E+01  0.29023706869E+02  0.00000000000E+00 0.  1.
<mgrwt>
<rscale>  1 0.30000000E+03</rscale>
<asrwt>0</asrwt>
<pdfrwt beam="1">  1        1 0.14528370E+00 0.30000000E+03</pdfrwt>
<pdfrwt beam="2">0</pdfrwt>
<totfact> 0.18992090E+01</totfact>
</mgrwt>
</event>
<event>
 6    1  0.1940992E-004  0.3000000E+03  0.7818608E-02  0.1093470E+00
          1   -1    0    0  502    0  0.00000000000E+00  0.00000000000E+00  0.51001838940E+02  0.51001838940E+02  0.00000000000E+00 0.  1.
         13   -1    0    0    0    0 -0.00000000000E+00 -0.00000000000E+00 -0.10000000000E+04  0.10000000000E+04  0.00000000000E+00 0.  1.
    9000005    2    1    2  501    0  0.83860219453E+01 -0.23426322554E+02 -0.95918097826E+03  0.10241167554E+04  0.35800539327E+03 0.  0.
         13    1    3    3    0    0  0.17537728000E+03 -0.19169839422E+02 -0.34323181117E+03  0.38591806032E+03  0.00000000000E+00 0.  1.
          1    1    3    3  501    0 -0.16699125806E+03 -0.42564831313E+01 -0.61594916709E+03  0.63819869505E+03  0.00000000000E+00 0.  1.
         21    1    1    2  502  501 -0.83860219453E+01  0.23426322554E+02  0.10182817204E+02  0.26885083572E+02  0.00000000000E+00 0. -1.
<mgrwt>
<rscale>  1 0.30000000E+03</rscale>
<asrwt>0</asrwt>
<pdfrwt beam="1">  1        1 0.18546162E+00 0.30000000E+03</pdfrwt>
<pdfrwt beam="2">0</pdfrwt>
<totfact> 0.12022763E+01</totfact>
</mgrwt>
</event>
<event>
 6    1  0.1940992E-004  0.3000000E+03  0.7818608E-02  0.1093470E+00
          1   -1    0    0  502    0  0.00000000000E+00  0.00000000000E+00  0.31274298992E+02  0.31274298992E+02  0.00000000000E+00 0.  1.
         13   -1    0    0    0    0 -0.00000000000E+00 -0.00000000000E+00 -0.10000000000E+04  0.10000000000E+04  0.00000000000E+00 0.  1.
    9000005    2    1    2  501    0 -0.12152874367E+02  0.13396192870E+02 -0.95410102856E+03  0.10080142177E+04  0.32474103527E+03 0.  0.
         13    1    3    3    0    0  0.13544820350E+03  0.46337984590E+02 -0.25211987431E+03  0.28992732826E+03  0.00000000000E+00 0.  1.
          3    1    3    3  501    0 -0.14760107787E+03 -0.32941791720E+02 -0.70198115425E+03  0.71808688942E+03  0.00000000000E+00 0.  1.
         21    1    1    2  502  501  0.12152874367E+02 -0.13396192870E+02 -0.14624672446E+02  0.23260081318E+02  0.00000000000E+00 0.  1.
<mgrwt>
<rscale>  1 0.30000000E+03</rscale>
<asrwt>0</asrwt>
<pdfrwt beam="1">  1        1 0.11372496E+00 0.30000000E+03</pdfrwt>
<pdfrwt beam="2">0</pdfrwt>
<totfact> 0.28244183E+01</totfact>
</mgrwt>
</event>
<event>
 6    1  0.1940992E-004  0.3000000E+03  0.7818608E-02  0.1093470E+00
          1   -1    0    0  502    0  0.00000000000E+00  0.00000000000E+00  0.33580207564E+02  0.33580207564E+02  0.00000000000E+00 0.  1.
         13   -1    0    0    0    0 -0.00000000000E+00 -0.00000000000E+00 -0.10000000000E+04  0.10000000000E+04  0.00000000000E+00 0.  1.
    9000005    2    1    2  501    0  0.60318676969E+01 -0.11059096679E+02 -0.96220528313E+03  0.10202967917E+04  0.33912807213E+03 0.  0.
         13    1    3    3    0    0  0.71544234453E+02 -0.77703016938E+02 -0.90410997867E+03  0.91025885871E+03  0.00000000000E+00 0.  1.
          1    1    3    3  501    0 -0.65512366757E+02  0.66643920258E+02 -0.58095304452E+02  0.11003793303E+03  0.00000000000E+00 0.  1.
         21    1    1    2  502  501 -0.60318676969E+01  0.11059096679E+02 -0.42145093110E+01  0.13283415826E+02  0.00000000000E+00 0.  1.
<mgrwt>
<rscale>  1 0.30000000E+03</rscale>
<asrwt>0</asrwt>
<pdfrwt beam="1">  1        1 0.12211010E+00 0.30000000E+03</pdfrwt>
<pdfrwt beam="2">0</pdfrwt>
<totfact> 0.25294726E+01</totfact>
</mgrwt>
</event>
<event>
 6    1  0.1940992E-004  0.3000000E+03  0.7818608E-02  0.1093470E+00
          1   -1    0    0  502    0  0.00000000000E+00  0.00000000000E+00  0.58302273746E+02  0.58302273746E+02  0.00000000000E+00 0.  1.
         13   -1    0    0    0    0 -0.00000000000E+00 -0.00000000000E+00 -0.10000000000E+04  0.10000000000E+04  0.00000000000E+00 0.  1.
    9000005    2    1    2  501    0  0.32167708546E+02 -0.21017977391E+02 -0.96088790221E+03  0.10153513750E+04  0.32581641659E+03 0.  0.
         13    1    3    3    0    0 -0.51310291111E+02 -0.56712826212E+02 -0.90607875481E+03  0.90930072064E+03  0.00000000000E+00 0.  1.
          1    1    3    3  501    0  0.83477999658E+02  0.35694848821E+02 -0.54809147400E+02  0.10605065440E+03  0.00000000000E+00 0.  1.
         21    1    1    2  502  501 -0.32167708546E+02  0.21017977391E+02  0.19190175959E+02  0.42950898711E+02  0.00000000000E+00 0.  1.
<mgrwt>
<rscale>  1 0.30000000E+03</rscale>
<asrwt>0</asrwt>
<pdfrwt beam="1">  1        1 0.21200872E+00 0.30000000E+03</pdfrwt>
<pdfrwt beam="2">0</pdfrwt>
<totfact> 0.89873894E+00</totfact>
</mgrwt>
</event>
<event>
 6    1  0.1940992E-004  0.3000000E+03  0.7818608E-02  0.1093470E+00
          1   -1    0    0  502    0  0.00000000000E+00  0.00000000000E+00  0.29457307063E+02  0.29457307063E+02  0.00000000000E+00 0.  1.
         13   -1    0    0    0    0 -0.00000000000E+00 -0.00000000000E+00 -0.10000000000E+04  0.10000000000E+04  0.00000000000E+00 0.  1.
    9000005    2    1    2  501    0 -0.16037190150E+02  0.15001215026E+02 -0.92299315213E+03  0.97708186672E+03  0.31982868457E+03 0.  0.
         13    1    3    3    0    0  0.11718786318E+03  0.10698855838E+03 -0.45436598083E+03  0.48127745785E+03  0.00000000000E+00 0.  1.
          3    1    3    3  501    0 -0.13322505333E+03 -0.91987343351E+02 -0.46862717131E+03  0.49580440887E+03  0.00000000000E+00 0.  1.
         21    1    1    2  502  501  0.16037190150E+02 -0.15001215026E+02 -0.47549540806E+02  0.52375440342E+02  0.00000000000E+00 0.  1.
<mgrwt>
<rscale>  1 0.30000000E+03</rscale>
<asrwt>0</asrwt>
<pdfrwt beam="1">  1        1 0.10711771E+00 0.30000000E+03</pdfrwt>
<pdfrwt beam="2">0</pdfrwt>
<totfact> 0.30918827E+01</totfact>
</mgrwt>
</event>
<event>
 6    1  0.1940992E-004  0.3000000E+03  0.7818608E-02  0.1093470E+00
          1   -1    0    0  502    0  0.00000000000E+00  0.00000000000E+00  0.38124458563E+02  0.38124458563E+02  0.00000000000E+00 0.  1.
         13   -1    0    0    0    0 -0.00000000000E+00 -0.00000000000E+00 -0.10000000000E+04  0.10000000000E+04  0.00000000000E+00 0.  1.
    9000005    2    1    2  501    0  0.29319737749E+02  0.47798719734E+01 -0.95704635468E+03  0.10080276939E+04  0.31511841027E+03 0.  0.
         13    1    3    3    0    0  0.96945310268E+02  0.73401053980E+02 -0.86914582148E+03  0.87761071489E+03  0.00000000000E+00 0.  1.
          1    1    3    3  501    0 -0.67625572520E+02 -0.68621182006E+02 -0.87900533203E+02  0.13041697902E+03  0.00000000000E+00 0.  1.
         21    1    1    2  502  501 -0.29319737749E+02 -0.47798719734E+01 -0.48291867566E+01  0.30096764651E+02  0.00000000000E+00 0.  1.
<mgrwt>
<rscale>  1 0.30000000E+03</rscale>
<asrwt>0</asrwt>
<pdfrwt beam="1">  1        1 0.13863469E+00 0.30000000E+03</pdfrwt>
<pdfrwt beam="2">0</pdfrwt>
<totfact> 0.20569292E+01</totfact>
</mgrwt>
</event>
<event>
 6    1  0.1940992E-004  0.3000000E+03  0.7818608E-02  0.1093470E+00
          1   -1    0    0  502    0  0.00000000000E+00  0.00000000000E+00  0.25281485136E+02  0.25281485136E+02  0.00000000000E+00 0.  1.
         13   -1    0    0    0    0 -0.00000000000E+00 -0.00000000000E+00 -0.10000000000E+04  0.10000000000E+04  0.00000000000E+00 0.  1.
    9000005    2    1    2  501    0  0.10750327299E+02 -0.12668951962E+01 -0.88605430149E+03  0.93595893874E+03  0.30134653684E+03 0.  0.
         13    1    3    3    0    0  0.12062520933E+03  0.86982826116E+02 -0.58413362457E+03  0.60276740499E+03  0.00000000000E+00 0.  1.
          1    1    3    3  501    0 -0.10987488203E+03 -0.88249721312E+02 -0.30192067692E+03  0.33319153375E+03  0.00000000000E+00 0.  1.
         21    1    1    2  502  501 -0.10750327299E+02  0.12668951962E+01 -0.88664213379E+02  0.89322546395E+02  0.00000000000E+00 0.  1.
<mgrwt>
<rscale>  1 0.30000000E+03</rscale>
<asrwt>0</asrwt>
<pdfrwt beam="1">  1        1 0.91932867E-01 0.30000000E+03</pdfrwt>
<pdfrwt beam="2">0</pdfrwt>
<totfact> 0.38646354E+01</totfact>
</mgrwt>
</event>
<event>
 6    1  0.1940992E-004  0.3000000E+03  0.7818608E-02  0.1093470E+00
          1   -1    0    0  502    0  0.00000000000E+00  0.00000000000E+00  0.29499417180E+02  0.29499417180E+02  0.00000000000E+00 0.  1.
         13   -1    0    0    0    0 -0.00000000000E+00 -0.00000000000E+00 -0.10000000000E+04  0.10000000000E+04  0.00000000000E+00 0.  1.
    9000005    2    1    2  501    0 -0.11589049340E+02 -0.34363190141E+01 -0.94985449415E+03  0.10055750503E+04  0.32986589303E+03 0.  0.
         13    1    3    3    0    0  0.54500151029E+02  0.95137383305E+02 -0.82890508767E+03  0.83612501011E+03  0.00000000000E+00 0.  1.
          1    1    3    3  501    0 -0.66089200369E+02 -0.98573702319E+02 -0.12094940648E+03  0.16945004019E+03  0.00000000000E+00 0.  1.
         21    1    1    2  502  501  0.11589049340E+02  0.34363190141E+01 -0.20646088670E+02  0.23924366875E+02  0.00000000000E+00 0.  1.
<mgrwt>
<rscale>  1 0.30000000E+03</rscale>
<asrwt>0</asrwt>
<pdfrwt beam="1">  1        1 0.10727083E+00 0.30000000E+03</pdfrwt>
<pdfrwt beam="2">0</pdfrwt>
<totfact> 0.30852832E+01</totfact>
</mgrwt>
</event>
<event>
 6    1  0.1940992E-004  0.3000000E+03  0.7818608E-02  0.1093470E+00
          1   -1    0    0  502    0  0.00000000000E+00  0.00000000000E+00  0.38860550671E+02  0.38860550671E+02  0.00000000000E+00 0.  1.
         13   -1    0    0    0    0 -0.00000000000E+00 -0.00000000000E+00 -0.10000000000E+04  0.10000000000E+04  0.00000000000E+00 0.  1.
    9000005    2    1    2  501    0  0.26046500465E+01 -0.29357607370E+02 -0.95617628737E+03  0.10089726553E+04  0.32075547280E+03 0.  0.
         13    1    3    3    0    0 -0.86454696817E+02 -0.40228842581E+02 -0.89572677493E+03  0.90078811588E+03  0.00000000000E+00 0.  1.
          3    1    3    3  501    0  0.89059346864E+02  0.10871235211E+02 -0.60449512436E+02  0.10818453943E+03  0.00000000000E+00 0.  1.
         21    1    1    2  502  501 -0.26046500465E+01  0.29357607370E+02 -0.49631619611E+01  0.29887895359E+02  0.00000000000E+00 0. -1.
<mgrwt>
<rscale>  1 0.30000000E+03</rscale>
<asrwt>0</asrwt>
<pdfrwt beam="1">  1        1 0.14131139E+00 0.30000000E+03</pdfrwt>
<pdfrwt beam="2">0</pdfrwt>
<totfact> 0.19915082E+01</totfact>
</mgrwt>
</event>
<event>
 6    1  0.1940992E-004  0.3000000E+03  0.7818608E-02  0.1093470E+00
          1   -1    0    0  502    0  0.00000000000E+00  0.00000000000E+00  0.53564801065E+02  0.53564801065E+02  0.00000000000E+00 0.  1.
         13   -1    0    0    0    0 -0.00000000000E+00 -0.00000000000E+00 -0.10000000000E+04  0.10000000000E+04  0.00000000000E+00 0.  1.
    9000005    2    1    2  501    0 -0.11198082057E+02  0.25232158091E+02 -0.97322886007E+03  0.10150945643E+04  0.28719418772E+03 0.  0.
         13    1    3    3    0    0 -0.38335122928E+02 -0.89155707465E+02 -0.12251230308E+03  0.15629326995E+03  0.00000000000E+00 0.  1.
          3    1    3    3  501    0  0.27137040871E+02  0.11438786556E+03 -0.85071655698E+03  0.85880129431E+03  0.00000000000E+00 0.  1.
         21    1    1    2  502  501  0.11198082057E+02 -0.25232158091E+02  0.26793661132E+02  0.38470236815E+02  0.00000000000E+00 0.  1.
<mgrwt>
<rscale>  1 0.30000000E+03</rscale>
<asrwt>0</asrwt>
<pdfrwt beam="1">  1        1 0.19478151E+00 0.30000000E+03</pdfrwt>
<pdfrwt beam="2">0</pdfrwt>
<totfact> 0.10846738E+01</totfact>
</mgrwt>
</event>
<event>
 6    1  0.1940992E-004  0.3000000E+03  0.7818608E-02  0.1093470E+00
          1   -1    0    0  502    0  0.00000000000E+00  0.00000000000E+00  0.35423756656E+02  0.35423756656E+02  0.00000000000E+00 0.  1.
         13   -1    0    0    0    0 -0.00000000000E+00 -0.00000000000E+00 -0.10000000000E+04  0.10000000000E+04  0.00000000000E+00 0.  1.
    9000005    2    1    2  501    0  0.24149922336E+02 -0.46767277053E+01 -0.94939624711E+03  0.10065183451E+04  0.33334794808E+03 0.  0.
         13    1    3    3    0    0 -0.15207346483E+03  0.12110799666E+02 -0.52411689038E+03  0.54586768081E+03  0.00000000000E+00 0.  1.
          3    1    3    3  501    0  0.17622338716E+03 -0.16787527371E+02 -0.42527935673E+03  0.46065066430E+03  0.00000000000E+00 0.  1.
         21    1    1    2  502  501 -0.24149922336E+02  0.46767277053E+01 -0.15179996231E+02  0.28905411542E+02  0.00000000000E+00 0.  1.
<mgrwt>
<rscale>  1 0.30000000E+03</rscale>
<asrwt>0</asrwt>
<pdfrwt beam="1">  1        1 0.12881393E+00 0.30000000E+03</pdfrwt>
<pdfrwt beam="2">0</pdfrwt>
<totfact> 0.23223310E+01</totfact>
</mgrwt>
</event>
<event>
 6    1  0.1940992E-004  0.3000000E+03  0.7818608E-02  0.1093470E+00
          1   -1    0    0  502    0  0.00000000000E+00  0.00000000000E+00  0.26895303202E+02  0.26895303202E+02  0.00000000000E+00 0.  1.
         13   -1    0    0    0    0 -0.00000000000E+00 -0.00000000000E+00 -0.10000000000E+04  0.10000000000E+04  0.00000000000E+00 0.  1.
    9000005    2    1    2  501    0  0.10750719905E+02  0.17158758625E+01 -0.94717793276E+03  0.99877557166E+03  0.31668293928E+03 0.  0.
         13    1    3    3    0    0 -0.50857578861E+02  0.10197848236E+03 -0.81026546129E+03  0.81823970934E+03  0.00000000000E+00 0.  1.
          3    1    3    3  501    0  0.61608298766E+02 -0.10026260650E+03 -0.13691247147E+03  0.18053586232E+03  0.00000000000E+00 0.  1.
         21    1    1    2  502  501 -0.10750719905E+02 -0.17158758625E+01 -0.25926764038E+02  0.28119731541E+02  0.00000000000E+00 0.  1.
<mgrwt>
<rscale>  1 0.30000000E+03</rscale>
<asrwt>0</asrwt>
<pdfrwt beam="1">  1        1 0.97801309E-01 0.30000000E+03</pdfrwt>
<pdfrwt beam="2">0</pdfrwt>
<totfact> 0.35353894E+01</totfact>
</mgrwt>
</event>
<event>
 6    1  0.1940992E-004  0.3000000E+03  0.7818608E-02  0.1093470E+00
          1   -1    0    0  502    0  0.00000000000E+00  0.00000000000E+00  0.49283690624E+02  0.49283690624E+02  0.00000000000E+00 0.  1.
         13   -1    0    0    0    0 -0.00000000000E+00 -0.00000000000E+00 -0.10000000000E+04  0.10000000000E+04  0.00000000000E+00 0.  1.
    9000005    2    1    2  501    0  0.23449439200E+02  0.11991119255E+02 -0.96072655821E+03  0.10211080234E+04  0.34492377814E+03 0.  0.
         13    1    3    3    0    0  0.70086913345E+02  0.12024886026E+02 -0.13067028142E+02  0.72301594247E+02  0.00000000000E+00 0.  1.
          3    1    3    3  501    0 -0.46637474146E+02 -0.33766771153E-01 -0.94765953007E+03  0.94880642919E+03  0.00000000000E+00 0.  1.
         21    1    1    2  502  501 -0.23449439200E+02 -0.11991119255E+02  0.10010248837E+02  0.28175667189E+02  0.00000000000E+00 0. -1.
<mgrwt>
<rscale>  1 0.30000000E+03</rscale>
<asrwt>0</asrwt>
<pdfrwt beam="1">  1        1 0.17921380E+00 0.30000000E+03</pdfrwt>
<pdfrwt beam="2">0</pdfrwt>
<totfact> 0.12886842E+01</totfact>
</mgrwt>
</event>
<event>
 6    1  0.1940992E-004  0.3000000E+03  0.7818608E-02  0.1093470E+00
          1   -1    0    0  502    0  0.00000000000E+00  0.00000000000E+00  0.35321294784E+02  0.35321294784E+02  0.00000000000E+00 0.  1.
         13   -1    0    0    0    0 -0.00000000000E+00 -0.00000000000E+00 -0.10000000000E+04  0.10000000000E+04  0.00000000000E+00 0.  1.
    9000005    2    1    2  501    0 -0.88463153024E+01  0.22760933977E+01 -0.95511345864E+03  0.10220951148E+04  0.36380388519E+03 0.  0.
         13    1    3    3    0    0 -0.13897921829E+03 -0.11953602471E+03 -0.54220242158E+03  0.57235264504E+03  0.00000000000E+00 0.  1.
          1    1    3    3  501    0  0.13013290299E+03  0.12181211811E+03 -0.41291103705E+03  0.44974246973E+03  0.00000000000E+00 0.  1.
         21    1    1    2  502  501  0.88463153024E+01 -0.22760933977E+01 -0.95652465782E+01  0.13226180011E+02  0.00000000000E+00 0.  1.
<mgrwt>
<rscale>  1 0.30000000E+03</rscale>
<asrwt>0</asrwt>
<pdfrwt beam="1">  1        1 0.12844134E+00 0.30000000E+03</pdfrwt>
<pdfrwt beam="2">0</pdfrwt>
<totfact> 0.23332602E+01</totfact>
</mgrwt>
</event>
<event>
 6    1  0.1940992E-004  0.3000000E+03  0.7818608E-02  0.1093470E+00
          1   -1    0    0  502    0  0.00000000000E+00  0.00000000000E+00  0.41331726915E+02  0.41331726915E+02  0.00000000000E+00 0.  1.
         13   -1    0    0    0    0 -0.00000000000E+00 -0.00000000000E+00 -0.10000000000E+04  0.10000000000E+04  0.00000000000E+00 0.  1.
    9000005    2    1    2  501    0  0.12193425883E+02 -0.81555352559E+01 -0.97070737188E+03  0.10223545751E+04  0.32050098764E+03 0.  0.
         13    1    3    3    0    0 -0.11239427018E+03 -0.87859160349E+02 -0.26143172491E+03  0.29782251563E+03  0.00000000000E+00 0.  1.
          1    1    3    3  501    0  0.12458769606E+03  0.79703625093E+02 -0.70927564697E+03  0.72453205950E+03  0.00000000000E+00 0.  1.
         21    1    1    2  502  501 -0.12193425883E+02  0.81555352559E+01  0.12039098795E+02  0.18977151785E+02  0.00000000000E+00 0.  1.
<mgrwt>
<rscale>  1 0.30000000E+03</rscale>
<asrwt>0</asrwt>
<pdfrwt beam="1">  1        1 0.15029751E+00 0.30000000E+03</pdfrwt>
<pdfrwt beam="2">0</pdfrwt>
<totfact> 0.17902513E+01</totfact>
</mgrwt>
</event>
<event>
 6    1  0.1940992E-004  0.3000000E+03  0.7818608E-02  0.1093470E+00
          1   -1    0    0  502    0  0.00000000000E+00  0.00000000000E+00  0.30641139074E+02  0.30641139074E+02  0.00000000000E+00 0.  1.
         13   -1    0    0    0    0 -0.00000000000E+00 -0.00000000000E+00 -0.10000000000E+04  0.10000000000E+04  0.00000000000E+00 0.  1.
    9000005    2    1    2  501    0  0.11462433033E+02 -0.34350005472E+01 -0.92575686540E+03  0.98542697521E+03  0.33748683388E+03 0.  0.
         13    1    3    3    0    0  0.12359114741E+03  0.52750999000E+02 -0.78699652492E+03  0.79838647900E+03  0.00000000000E+00 0.  1.
          3    1    3    3  501    0 -0.11212871438E+03 -0.56185999547E+02 -0.13876034048E+03  0.18704049622E+03  0.00000000000E+00 0.  1.
         21    1    1    2  502  501 -0.11462433033E+02  0.34350005472E+01 -0.43601995526E+02  0.45214163861E+02  0.00000000000E+00 0.  1.
<mgrwt>
<rscale>  1 0.30000000E+03</rscale>
<asrwt>0</asrwt>
<pdfrwt beam="1">  1        1 0.11142256E+00 0.30000000E+03</pdfrwt>
<pdfrwt beam="2">0</pdfrwt>
<totfact> 0.29137533E+01</totfact>
</mgrwt>
</event>
<event>
 6    1  0.1940992E-004  0.3000000E+03  0.7818608E-02  0.1093470E+00
          1   -1    0    0  502    0  0.00000000000E+00  0.00000000000E+00  0.27761259370E+02  0.27761259370E+02  0.00000000000E+00 0.  1.
         13   -1    0    0    0    0 -0.00000000000E+00 -0.00000000000E+00 -0.10000000000E+04  0.10000000000E+04  0.00000000000E+00 0.  1.
    9000005    2    1    2  501    0  0.88823954397E+01  0.33377811289E+01 -0.90421977804E+03  0.95908362834E+03  0.31959030246E+03 0.  0.
         13    1    3    3    0    0  0.15585264333E+03  0.95819453831E+01 -0.31232383670E+03  0.34918195699E+03  0.00000000000E+00 0.  1.
          1    1    3    3  501    0 -0.14697024789E+03 -0.62441642542E+01 -0.59189594133E+03  0.60990167136E+03  0.00000000000E+00 0.  1.
         21    1    1    2  502  501 -0.88823954397E+01 -0.33377811289E+01 -0.68018962591E+02  0.68677631028E+02  0.00000000000E+00 0.  1.
<mgrwt>
<rscale>  1 0.30000000E+03</rscale>
<asrwt>0</asrwt>
<pdfrwt beam="1">  1        1 0.10095025E+00 0.30000000E+03</pdfrwt>
<pdfrwt beam="2">0</pdfrwt>
<totfact> 0.33756230E+01</totfact>
</mgrwt>
</event>
<event>
 6    1  0.1940992E-004  0.3000000E+03  0.7818608E-02  0.1093470E+00
          1   -1    0    0  502    0  0.00000000000E+00  0.00000000000E+00  0.38362632555E+02  0.38362632555E+02  0.00000000000E+00 0.  1.
         13   -1    0    0    0    0 -0.00000000000E+00 -0.00000000000E+00 -0.10000000000E+04  0.10000000000E+04  0.00000000000E+00 0.  1.
    9000005    2    1    2  501    0 -0.17866771773E+02 -0.28125379982E+02 -0.94550791790E+03  0.10013434797E+04  0.32801415072E+03 0.  0.
         13    1    3    3    0    0  0.76980017452E+02 -0.12036486062E+03 -0.20977351127E+03  0.25380809441E+03  0.00000000000E+00 0.  1.
          1    1    3    3  501    0 -0.94846789225E+02  0.92239480639E+02 -0.73573440663E+03  0.74753538532E+03  0.00000000000E+00 0.  1.
         21    1    1    2  502  501  0.17866771773E+02  0.28125379982E+02 -0.16129449549E+02  0.37019152820E+02  0.00000000000E+00 0. -1.
<mgrwt>
<rscale>  1 0.30000000E+03</rscale>
<asrwt>0</asrwt>
<pdfrwt beam="1">  1        1 0.13950078E+00 0.30000000E+03</pdfrwt>
<pdfrwt beam="2">0</pdfrwt>
<totfact> 0.20354654E+01</totfact>
</mgrwt>
</event>
<event>
 6    1  0.1940992E-004  0.3000000E+03  0.7818608E-02  0.1093470E+00
          3   -1    0    0  502    0  0.00000000000E+00  0.00000000000E+00  0.29232844736E+02  0.29232844736E+02  0.00000000000E+00 0.  1.
         13   -1    0    0    0    0 -0.00000000000E+00 -0.00000000000E+00 -0.10000000000E+04  0.10000000000E+04  0.00000000000E+00 0.  1.
    9000005    2    1    2  501    0 -0.10269817969E+02 -0.46436757057E+01 -0.93573067154E+03  0.99242811573E+03  0.33044612625E+03 0.  0.
         13    1    3    3    0    0  0.41450168897E+02  0.15335827429E+03 -0.54789856928E+03  0.57046447656E+03  0.00000000000E+00 0.  1.
          3    1    3    3  501    0 -0.51719986865E+02 -0.15800195000E+03 -0.38783210226E+03  0.42196363917E+03  0.00000000000E+00 0.  1.
         21    1    1    2  502  501  0.10269817969E+02  0.46436757057E+01 -0.35036483728E+02  0.36804729006E+02  0.00000000000E+00 0. -1.
<mgrwt>
<rscale>  1 0.30000000E+03</rscale>
<asrwt>0</asrwt>
<pdfrwt beam="1">  1        3 0.10630148E+00 0.30000000E+03</pdfrwt>
<pdfrwt beam="2">0</pdfrwt>
<totfact> 0.33205738E+00</totfact>
</mgrwt>
</event>
<event>
 6    1  0.1940992E-004  0.3000000E+03  0.7818608E-02  0.1093470E+00
          3   -1    0    0  502    0  0.00000000000E+00  0.00000000000E+00  0.39518232521E+02  0.39518232521E+02  0.00000000000E+00 0.  1.
         13   -1    0    0    0    0 -0.00000000000E+00 -0.00000000000E+00 -0.10000000000E+04  0.10000000000E+04  0.00000000000E+00 0.  1.
    9000005    2    1    2  501    0  0.60550900944E+01 -0.17645400808E+02 -0.88580464304E+03  0.96254617785E+03  0.37616120823E+03 0.  0.
         13    1    3    3    0    0  0.33549828418E+02 -0.77434701888E+02 -0.10809464603E+02  0.85079777670E+02  0.00000000000E+00 0.  1.
          1    1    3    3  501    0 -0.27494738324E+02  0.59789301079E+02 -0.87499517843E+03  0.87746640018E+03  0.00000000000E+00 0.  1.
         21    1    1    2  502  501 -0.60550900944E+01  0.17645400808E+02 -0.74677124442E+02  0.76972054673E+02  0.00000000000E+00 0.  1.
<mgrwt>
<rscale>  1 0.30000000E+03</rscale>
<asrwt>0</asrwt>
<pdfrwt beam="1">  1        3 0.14370297E+00 0.30000000E+03</pdfrwt>
<pdfrwt beam="2">0</pdfrwt>
<totfact> 0.12010376E+00</totfact>
</mgrwt>
</event>
<event>
 6    1  0.1940992E-004  0.3000000E+03  0.7818608E-02  0.1093470E+00
          1   -1    0    0  502    0  0.00000000000E+00  0.00000000000E+00  0.39502559526E+02  0.39502559526E+02  0.00000000000E+00 0.  1.
         13   -1    0    0    0    0 -0.00000000000E+00 -0.00000000000E+00 -0.10000000000E+04  0.10000000000E+04  0.00000000000E+00 0.  1.
    9000005    2    1    2  501    0  0.30351678896E+02 -0.76980095246E+01 -0.95111182402E+03  0.10068135161E+04  0.32875411889E+03 0.  0.
         13    1    3    3    0    0  0.17441786486E+03 -0.43944600332E+02 -0.57290104141E+03  0.60047341551E+03  0.00000000000E+00 0.  1.
          3    1    3    3  501    0 -0.14406618597E+03  0.36246590807E+02 -0.37821078261E+03  0.40634010062E+03  0.00000000000E+00 0.  1.
         21    1    1    2  502  501 -0.30351678896E+02  0.76980095246E+01 -0.93856164502E+01  0.32689043403E+02  0.00000000000E+00 0.  1.
<mgrwt>
<rscale>  1 0.30000000E+03</rscale>
<asrwt>0</asrwt>
<pdfrwt beam="1">  1        1 0.14364597E+00 0.30000000E+03</pdfrwt>
<pdfrwt beam="2">0</pdfrwt>
<totfact> 0.19365933E+01</totfact>
</mgrwt>
</event>
<event>
 6    1  0.1940992E-004  0.3000000E+03  0.7818608E-02  0.1093470E+00
          1   -1    0    0  502    0  0.00000000000E+00  0.00000000000E+00  0.45615753398E+02  0.45615753398E+02  0.00000000000E+00 0.  1.
         13   -1    0    0    0    0 -0.00000000000E+00 -0.00000000000E+00 -0.10000000000E+04  0.10000000000E+04  0.00000000000E+00 0.  1.
    9000005    2    1    2  501    0 -0.13876957449E+02 -0.77674756220E+01 -0.97076059193E+03  0.10227883946E+04  0.32166297512E+03 0.  0.
         13    1    3    3    0    0 -0.68881176554E+02  0.47823867000E+02 -0.47803738827E+02  0.96524277693E+02  0.00000000000E+00 0.  1.
          3    1    3    3  501    0  0.55004219105E+02 -0.55591342622E+02 -0.92295685310E+03  0.92626411686E+03  0.00000000000E+00 0.  1.
         21    1    1    2  502  501  0.13876957449E+02  0.77674756220E+01  0.16376345327E+02  0.22827358845E+02  0.00000000000E+00 0.  1.
<mgrwt>
<rscale>  1 0.30000000E+03</rscale>
<asrwt>0</asrwt>
<pdfrwt beam="1">  1        1 0.16587582E+00 0.30000000E+03</pdfrwt>
<pdfrwt beam="2">0</pdfrwt>
<totfact> 0.14968026E+01</totfact>
</mgrwt>
</event>
<event>
 6    1  0.1940992E-004  0.3000000E+03  0.7818608E-02  0.1093470E+00
          1   -1    0    0  502    0  0.00000000000E+00  0.00000000000E+00  0.47442509332E+02  0.47442509332E+02  0.00000000000E+00 0.  1.
         13   -1    0    0    0    0 -0.00000000000E+00 -0.00000000000E+00 -0.10000000000E+04  0.10000000000E+04  0.00000000000E+00 0.  1.
    9000005    2    1    2  501    0  0.70778002693E+02 -0.80465181211E+02 -0.69600333761E+03  0.76940617267E+03  0.30996942031E+03 0.  0.
         13    1    3    3    0    0 -0.29885723374E+02 -0.15744709829E+03 -0.19388738438E+03  0.25154534987E+03  0.00000000000E+00 0.  1.
          3    1    3    3  501    0  0.10066372607E+03  0.76981917075E+02 -0.50211595323E+03  0.51786082280E+03  0.00000000000E+00 0.  1.
         21    1    1    2  502  501 -0.70778002693E+02  0.80465181211E+02 -0.25655415306E+03  0.27803633666E+03  0.00000000000E+00 0.  1.
<mgrwt>
<rscale>  1 0.30000000E+03</rscale>
<asrwt>0</asrwt>
<pdfrwt beam="1">  1        1 0.17251858E+00 0.30000000E+03</pdfrwt>
<pdfrwt beam="2">0</pdfrwt>
<totfact> 0.13888603E+01</totfact>
</mgrwt>
</event>
<event>
 6    1  0.1940992E-004  0.3000000E+03  0.7818608E-02  0.1093470E+00
          1   -1    0    0  502    0  0.00000000000E+00  0.00000000000E+00  0.34844217932E+02  0.34844217932E+02  0.00000000000E+00 0.  1.
         13   -1    0    0    0    0 -0.00000000000E+00 -0.00000000000E+00 -0.10000000000E+04  0.10000000000E+04  0.00000000000E+00 0.  1.
    9000005    2    1    2  501    0 -0.22961295920E+02  0.33507570293E+02 -0.90167584627E+03  0.95948056206E+03  0.32547448264E+03 0.  0.
         13    1    3    3    0    0 -0.16394606317E+03  0.52086191533E+02 -0.62709925517E+03  0.65026514501E+03  0.00000000000E+00 0.  1.
          3    1    3    3  501    0  0.14098476725E+03 -0.18578621240E+02 -0.27457659110E+03  0.30921541706E+03  0.00000000000E+00 0.  1.
         21    1    1    2  502  501  0.22961295920E+02 -0.33507570293E+02 -0.63479935797E+02  0.75363655870E+02  0.00000000000E+00 0.  1.
<mgrwt>
<rscale>  1 0.30000000E+03</rscale>
<asrwt>0</asrwt>
<pdfrwt beam="1">  1        1 0.12670651E+00 0.30000000E+03</pdfrwt>
<pdfrwt beam="2">0</pdfrwt>
<totfact> 0.23850291E+01</totfact>
</mgrwt>
</event>
<event>
 6    1  0.1940992E-004  0.3000000E+03  0.7818608E-02  0.1093470E+00
          1   -1    0    0  502    0  0.00000000000E+00  0.00000000000E+00  0.29425960421E+02  0.29425960421E+02  0.00000000000E+00 0.  1.
         13   -1    0    0    0    0 -0.00000000000E+00 -0.00000000000E+00 -0.10000000000E+04  0.10000000000E+04  0.00000000000E+00 0.  1.
    9000005    2    1    2  501    0 -0.12223277290E+02  0.12002193226E+01 -0.95868008565E+03  0.10123287333E+04  0.32494785531E+03 0.  0.
         13    1    3    3    0    0  0.89187341244E+02 -0.12248881332E+03 -0.61283651335E+03  0.63128954000E+03  0.00000000000E+00 0.  1.
          1    1    3    3  501    0 -0.10141061853E+03  0.12368903264E+03 -0.34584357231E+03  0.38103919333E+03  0.00000000000E+00 0.  1.
         21    1    1    2  502  501  0.12223277290E+02 -0.12002193226E+01 -0.11893953926E+02  0.17097227089E+02  0.00000000000E+00 0.  1.
<mgrwt>
<rscale>  1 0.30000000E+03</rscale>
<asrwt>0</asrwt>
<pdfrwt beam="1">  1        1 0.10700372E+00 0.30000000E+03</pdfrwt>
<pdfrwt beam="2">0</pdfrwt>
<totfact> 0.30968085E+01</totfact>
</mgrwt>
</event>
<event>
 6    1  0.1940992E-004  0.3000000E+03  0.7818608E-02  0.1093470E+00
          1   -1    0    0  502    0  0.00000000000E+00  0.00000000000E+00  0.30814542028E+02  0.30814542028E+02  0.00000000000E+00 0.  1.
         13   -1    0    0    0    0 -0.00000000000E+00 -0.00000000000E+00 -0.10000000000E+04  0.10000000000E+04  0.00000000000E+00 0.  1.
    9000005    2    1    2  501    0 -0.46501980180E+01 -0.22487933744E+02 -0.94627302622E+03  0.99837519810E+03  0.31747923479E+03 0.  0.
         13    1    3    3    0    0 -0.11391731061E+02 -0.10276992644E+03 -0.89907929688E+03  0.90500553114E+03  0.00000000000E+00 0.  1.
          3    1    3    3  501    0  0.67415330425E+01  0.80281992695E+02 -0.47193729338E+02  0.93369666957E+02  0.00000000000E+00 0.  1.
         21    1    1    2  502  501  0.46501980180E+01  0.22487933744E+02 -0.22912431754E+02  0.32439343929E+02  0.00000000000E+00 0. -1.
<mgrwt>
<rscale>  1 0.30000000E+03</rscale>
<asrwt>0</asrwt>
<pdfrwt beam="1">  1        1 0.11205312E+00 0.30000000E+03</pdfrwt>
<pdfrwt beam="2">0</pdfrwt>
<totfact> 0.28888917E+01</totfact>
</mgrwt>
</event>
<event>
 6    1  0.1940992E-004  0.3000000E+03  0.7818608E-02  0.1093470E+00
          1   -1    0    0  502    0  0.00000000000E+00  0.00000000000E+00  0.45404954768E+02  0.45404954768E+02  0.00000000000E+00 0.  1.
         13   -1    0    0    0    0 -0.00000000000E+00 -0.00000000000E+00 -0.10000000000E+04  0.10000000000E+04  0.00000000000E+00 0.  1.
    9000005    2    1    2  501    0 -0.12665444207E+02 -0.87266919615E+02 -0.64486349404E+03  0.72336526383E+03  0.31564608382E+03 0.  0.
         13    1    3    3    0    0  0.10074545214E+03 -0.62737709405E+02 -0.57671330336E+03  0.58879869275E+03  0.00000000000E+00 0.  1.
          1    1    3    3  501    0 -0.11341089634E+03 -0.24529210210E+02 -0.68150190679E+02  0.13456657108E+03  0.00000000000E+00 0.  1.
         21    1    1    2  502  501  0.12665444207E+02  0.87266919615E+02 -0.30973155119E+03  0.32203969094E+03  0.00000000000E+00 0. -1.
<mgrwt>
<rscale>  1 0.30000000E+03</rscale>
<asrwt>0</asrwt>
<pdfrwt beam="1">  1        1 0.16510927E+00 0.30000000E+03</pdfrwt>
<pdfrwt beam="2">0</pdfrwt>
<totfact> 0.15098591E+01</totfact>
</mgrwt>
</event>
<event>
 6    1  0.1940992E-004  0.3000000E+03  0.7818608E-02  0.1093470E+00
          1   -1    0    0  502    0  0.00000000000E+00  0.00000000000E+00  0.18051250895E+02  0.18051250895E+02  0.00000000000E+00 0.  1.
         13   -1    0    0    0    0 -0.00000000000E+00 -0.00000000000E+00 -0.10000000000E+04  0.10000000000E+04  0.00000000000E+00 0.  1.
    9000005    2    1    2  501    0  0.30449562970E+01  0.87525652296E+01 -0.96790022293E+03  0.10012215080E+04  0.25598395937E+03 0.  0.
         13    1    3    3    0    0  0.10202741946E+03  0.81836885662E+02 -0.43129560200E+03  0.45069143155E+03  0.00000000000E+00 0.  1.
          1    1    3    3  501    0 -0.98982463158E+02 -0.73084320432E+02 -0.53660462093E+03  0.55053007648E+03  0.00000000000E+00 0.  1.
         21    1    1    2  502  501 -0.30449562970E+01 -0.87525652296E+01 -0.14048526176E+02  0.16829742858E+02  0.00000000000E+00 0.  1.
<mgrwt>
<rscale>  1 0.30000000E+03</rscale>
<asrwt>0</asrwt>
<pdfrwt beam="1">  1        1 0.65641051E-01 0.30000000E+03</pdfrwt>
<pdfrwt beam="2">0</pdfrwt>
<totfact> 0.61499229E+01</totfact>
</mgrwt>
</event>
<event>
 6    1  0.1940992E-004  0.3000000E+03  0.7818608E-02  0.1093470E+00
          1   -1    0    0  502    0  0.00000000000E+00  0.00000000000E+00  0.50900611995E+02  0.50900611995E+02  0.00000000000E+00 0.  1.
         13   -1    0    0    0    0 -0.00000000000E+00 -0.00000000000E+00 -0.10000000000E+04  0.10000000000E+04  0.00000000000E+00 0.  1.
    9000005    2    1    2  501    0  0.39733324425E+02 -0.15729525827E+02 -0.95170517256E+03  0.10080877031E+04  0.32965425322E+03 0.  0.
         13    1    3    3    0    0 -0.11984713095E+03 -0.73980707038E+02 -0.25858860912E+03  0.29445636107E+03  0.00000000000E+00 0.  1.
          1    1    3    3  501    0  0.15958045537E+03  0.58251181210E+02 -0.69311656344E+03  0.71363134205E+03  0.00000000000E+00 0.  1.
         21    1    1    2  502  501 -0.39733324425E+02  0.15729525827E+02  0.26057845545E+01  0.42812908868E+02  0.00000000000E+00 0. -1.
<mgrwt>
<rscale>  1 0.30000000E+03</rscale>
<asrwt>0</asrwt>
<pdfrwt beam="1">  1        1 0.18509352E+00 0.30000000E+03</pdfrwt>
<pdfrwt beam="2">0</pdfrwt>
<totfact> 0.12071866E+01</totfact>
</mgrwt>
</event>
<event>
 6    1  0.1940992E-004  0.3000000E+03  0.7818608E-02  0.1093470E+00
          1   -1    0    0  502    0  0.00000000000E+00  0.00000000000E+00  0.41878662683E+02  0.41878662683E+02  0.00000000000E+00 0.  1.
         13   -1    0    0    0    0 -0.00000000000E+00 -0.00000000000E+00 -0.10000000000E+04  0.10000000000E+04  0.00000000000E+00 0.  1.
    9000005    2    1    2  501    0  0.45174653327E+00 -0.12355333409E+02 -0.97099479875E+03  0.10240297314E+04  0.32504327908E+03 0.  0.
         13    1    3    3    0    0  0.10776946796E+03  0.11575061867E+03 -0.46861302941E+03  0.49458127268E+03  0.00000000000E+00 0.  1.
          3    1    3    3  501    0 -0.10731772143E+03 -0.12810595208E+03 -0.50238176933E+03  0.52944845873E+03  0.00000000000E+00 0.  1.
         21    1    1    2  502  501 -0.45174653327E+00  0.12355333409E+02  0.12873461429E+02  0.17848931277E+02  0.00000000000E+00 0. -1.
<mgrwt>
<rscale>  1 0.30000000E+03</rscale>
<asrwt>0</asrwt>
<pdfrwt beam="1">  1        1 0.15228637E+00 0.30000000E+03</pdfrwt>
<pdfrwt beam="2">0</pdfrwt>
<totfact> 0.17491872E+01</totfact>
</mgrwt>
</event>
<event>
 6    1  0.1940992E-004  0.3000000E+03  0.7818608E-02  0.1093470E+00
          1   -1    0    0  502    0  0.00000000000E+00  0.00000000000E+00  0.31249009287E+02  0.31249009287E+02  0.00000000000E+00 0.  1.
         13   -1    0    0    0    0 -0.00000000000E+00 -0.00000000000E+00 -0.10000000000E+04  0.10000000000E+04  0.00000000000E+00 0.  1.
    9000005    2    1    2  501    0  0.51980947211E+01  0.14482970901E+02 -0.95855928335E+03  0.10127923700E+04  0.32661247434E+03 0.  0.
         13    1    3    3    0    0 -0.68916915179E+02  0.89672575284E+02 -0.86303792469E+03  0.87041666540E+03  0.00000000000E+00 0.  1.
          3    1    3    3  501    0  0.74115009900E+02 -0.75189604383E+02 -0.95521358665E+02  0.14237570460E+03  0.00000000000E+00 0.  1.
         21    1    1    2  502  501 -0.51980947211E+01 -0.14482970901E+02 -0.10191707362E+02  0.18456639288E+02  0.00000000000E+00 0. -1.
<mgrwt>
<rscale>  1 0.30000000E+03</rscale>
<asrwt>0</asrwt>
<pdfrwt beam="1">  1        1 0.11363300E+00 0.30000000E+03</pdfrwt>
<pdfrwt beam="2">0</pdfrwt>
<totfact> 0.28279112E+01</totfact>
</mgrwt>
</event>
<event>
 6    1  0.1940992E-004  0.3000000E+03  0.7818608E-02  0.1093470E+00
          1   -1    0    0  502    0  0.00000000000E+00  0.00000000000E+00  0.53713686036E+02  0.53713686036E+02  0.00000000000E+00 0.  1.
         13   -1    0    0    0    0 -0.00000000000E+00 -0.00000000000E+00 -0.10000000000E+04  0.10000000000E+04  0.00000000000E+00 0.  1.
    9000005    2    1    2  501    0  0.79784645133E-01 -0.10223979418E+02 -0.97292623180E+03  0.10251791220E+04  0.32295857877E+03 0.  0.
         13    1    3    3    0    0  0.15391170235E+03 -0.51063400400E+02 -0.54495937196E+03  0.56857453343E+03  0.00000000000E+00 0.  1.
          1    1    3    3  501    0 -0.15383191770E+03  0.40839420981E+02 -0.42796685984E+03  0.45660458860E+03  0.00000000000E+00 0.  1.
         21    1    1    2  502  501 -0.79784645133E-01  0.10223979418E+02  0.26639917835E+02  0.28534564005E+02  0.00000000000E+00 0.  1.
<mgrwt>
<rscale>  1 0.30000000E+03</rscale>
<asrwt>0</asrwt>
<pdfrwt beam="1">  1        1 0.19532291E+00 0.30000000E+03</pdfrwt>
<pdfrwt beam="2">0</pdfrwt>
<totfact> 0.10782361E+01</totfact>
</mgrwt>
</event>
<event>
 6    1  0.1940992E-004  0.3000000E+03  0.7818608E-02  0.1093470E+00
          1   -1    0    0  502    0  0.00000000000E+00  0.00000000000E+00  0.48079878268E+02  0.48079878268E+02  0.00000000000E+00 0.  1.
         13   -1    0    0    0    0 -0.00000000000E+00 -0.00000000000E+00 -0.10000000000E+04  0.10000000000E+04  0.00000000000E+00 0.  1.
    9000005    2    1    2  501    0 -0.44090013209E+02  0.84994464170E+02 -0.81441883248E+03  0.88052513273E+03  0.32074676379E+03 0.  0.
         13    1    3    3    0    0 -0.13661152130E+03  0.79666516520E+02 -0.75280789263E+03  0.76923935469E+03  0.00000000000E+00 0.  1.
          3    1    3    3  501    0  0.92521508088E+02  0.53279476501E+01 -0.61610939849E+02  0.11128577804E+03  0.00000000000E+00 0.  1.
         21    1    1    2  502  501  0.44090013209E+02 -0.84994464170E+02 -0.13750128925E+03  0.16755474553E+03  0.00000000000E+00 0.  1.
<mgrwt>
<rscale>  1 0.30000000E+03</rscale>
<asrwt>0</asrwt>
<pdfrwt beam="1">  1        1 0.17483629E+00 0.30000000E+03</pdfrwt>
<pdfrwt beam="2">0</pdfrwt>
<totfact> 0.13532619E+01</totfact>
</mgrwt>
</event>
<event>
 6    1  0.1940992E-004  0.3000000E+03  0.7818608E-02  0.1093470E+00
          1   -1    0    0  502    0  0.00000000000E+00  0.00000000000E+00  0.35730965471E+02  0.35730965471E+02  0.00000000000E+00 0.  1.
         13   -1    0    0    0    0 -0.00000000000E+00 -0.00000000000E+00 -0.10000000000E+04  0.10000000000E+04  0.00000000000E+00 0.  1.
    9000005    2    1    2  501    0 -0.20227821739E+02 -0.39822348148E+01 -0.96295422424E+03  0.10150729962E+04  0.32041742582E+03 0.  0.
         13    1    3    3    0    0 -0.81931162099E+02 -0.14431803273E+03 -0.55433750062E+03  0.57864537887E+03  0.00000000000E+00 0.  1.
          1    1    3    3  501    0  0.61703340360E+02  0.14033579792E+03 -0.40861672361E+03  0.43642761737E+03  0.00000000000E+00 0.  1.
         21    1    1    2  502  501  0.20227821739E+02  0.39822348148E+01 -0.13148102939E+01  0.20657969226E+02  0.00000000000E+00 0.  1.
<mgrwt>
<rscale>  1 0.30000000E+03</rscale>
<asrwt>0</asrwt>
<pdfrwt beam="1">  1        1 0.12993106E+00 0.30000000E+03</pdfrwt>
<pdfrwt beam="2">0</pdfrwt>
<totfact> 0.22899566E+01</totfact>
</mgrwt>
</event>
<event>
 6    1  0.1940992E-004  0.3000000E+03  0.7818608E-02  0.1093470E+00
          1   -1    0    0  502    0  0.00000000000E+00  0.00000000000E+00  0.29077441563E+02  0.29077441563E+02  0.00000000000E+00 0.  1.
         13   -1    0    0    0    0 -0.00000000000E+00 -0.00000000000E+00 -0.10000000000E+04  0.10000000000E+04  0.00000000000E+00 0.  1.
    9000005    2    1    2  501    0  0.18151514510E+01  0.10903707006E+02 -0.93191322224E+03  0.98853223332E+03  0.32956264490E+03 0.  0.
         13    1    3    3    0    0 -0.13061838472E+03  0.48374321036E+01 -0.16626561032E+03  0.21149188247E+03  0.00000000000E+00 0.  1.
          3    1    3    3  501    0  0.13243353618E+03  0.60662749024E+01 -0.76564761193E+03  0.77704035085E+03  0.00000000000E+00 0.  1.
         21    1    1    2  502  501 -0.18151514510E+01 -0.10903707006E+02 -0.39009336193E+02  0.40545208244E+02  0.00000000000E+00 0. -1.
<mgrwt>
<rscale>  1 0.30000000E+03</rscale>
<asrwt>0</asrwt>
<pdfrwt beam="1">  1        1 0.10573637E+00 0.30000000E+03</pdfrwt>
<pdfrwt beam="2">0</pdfrwt>
<totfact> 0.31523432E+01</totfact>
</mgrwt>
</event>
<event>
 6    1  0.1940992E-004  0.3000000E+03  0.7818608E-02  0.1093470E+00
          1   -1    0    0  502    0  0.00000000000E+00  0.00000000000E+00  0.21207095894E+02  0.21207095894E+02  0.00000000000E+00 0.  1.
         13   -1    0    0    0    0 -0.00000000000E+00 -0.00000000000E+00 -0.10000000000E+04  0.10000000000E+04  0.00000000000E+00 0.  1.
    9000005    2    1    2  501    0 -0.16028426265E+02  0.39337643169E+01 -0.97158378991E+03  0.10031972020E+04  0.24931341791E+03 0.  0.
         13    1    3    3    0    0 -0.12729060421E+03  0.28256782317E+01 -0.66423355008E+03  0.67632617237E+03  0.00000000000E+00 0.  1.
          1    1    3    3  501    0  0.11126217794E+03  0.11080860852E+01 -0.30735023983E+03  0.32687102965E+03  0.00000000000E+00 0.  1.
         21    1    1    2  502  501  0.16028426265E+02 -0.39337643169E+01 -0.72091141922E+01  0.18009893883E+02  0.00000000000E+00 0.  1.
<mgrwt>
<rscale>  1 0.30000000E+03</rscale>
<asrwt>0</asrwt>
<pdfrwt beam="1">  1        1 0.77116875E-01 0.30000000E+03</pdfrwt>
<pdfrwt beam="2">0</pdfrwt>
<totfact> 0.49403007E+01</totfact>
</mgrwt>
</event>
<event>
 6    1  0.1940992E-004  0.3000000E+03  0.7818608E-02  0.1093470E+00
          1   -1    0    0  502    0  0.00000000000E+00  0.00000000000E+00  0.49786797636E+02  0.49786797636E+02  0.00000000000E+00 0.  1.
         13   -1    0    0    0    0 -0.00000000000E+00 -0.00000000000E+00 -0.10000000000E+04  0.10000000000E+04  0.00000000000E+00 0.  1.
    9000005    2    1    2  501    0  0.15881398032E+02  0.15771774576E+02 -0.96498690167E+03  0.10229683363E+04  0.33876766230E+03 0.  0.
         13    1    3    3    0    0  0.13699715094E+03 -0.10121549446E+03 -0.45047947640E+03  0.48160622332E+03  0.00000000000E+00 0.  1.
          1    1    3    3  501    0 -0.12111575291E+03  0.11698726904E+03 -0.51450742527E+03  0.54136211299E+03  0.00000000000E+00 0.  1.
         21    1    1    2  502  501 -0.15881398032E+02 -0.15771774576E+02  0.14773699307E+02  0.26818461327E+02  0.00000000000E+00 0.  1.
<mgrwt>
<rscale>  1 0.30000000E+03</rscale>
<asrwt>0</asrwt>
<pdfrwt beam="1">  1        1 0.18104328E+00 0.30000000E+03</pdfrwt>
<pdfrwt beam="2">0</pdfrwt>
<totfact> 0.12626959E+01</totfact>
</mgrwt>
</event>
<event>
 6    1  0.1940992E-004  0.3000000E+03  0.7818608E-02  0.1093470E+00
          1   -1    0    0  502    0  0.00000000000E+00  0.00000000000E+00  0.33516529337E+02  0.33516529337E+02  0.00000000000E+00 0.  1.
         13   -1    0    0    0    0 -0.00000000000E+00 -0.00000000000E+00 -0.10000000000E+04  0.10000000000E+04  0.00000000000E+00 0.  1.
    9000005    2    1    2  501    0 -0.18602838784E+01 -0.22144414726E+02 -0.94204565444E+03  0.10004855950E+04  0.33619573919E+03 0.  0.
         13    1    3    3    0    0 -0.85689364696E+02 -0.11566107807E+03 -0.79126900561E+03  0.80425542674E+03  0.00000000000E+00 0.  1.
          1    1    3    3  501    0  0.83829080818E+02  0.93516663345E+02 -0.15077664883E+03  0.19623016829E+03  0.00000000000E+00 0.  1.
         21    1    1    2  502  501  0.18602838784E+01  0.22144414726E+02 -0.24437816227E+02  0.33030934313E+02  0.00000000000E+00 0. -1.
<mgrwt>
<rscale>  1 0.30000000E+03</rscale>
<asrwt>0</asrwt>
<pdfrwt beam="1">  1        1 0.12187855E+00 0.30000000E+03</pdfrwt>
<pdfrwt beam="2">0</pdfrwt>
<totfact> 0.25370451E+01</totfact>
</mgrwt>
</event>
<event>
 6    1  0.1940992E-004  0.3000000E+03  0.7818608E-02  0.1093470E+00
          1   -1    0    0  502    0  0.00000000000E+00  0.00000000000E+00  0.39375985909E+02  0.39375985909E+02  0.00000000000E+00 0.  1.
         13   -1    0    0    0    0 -0.00000000000E+00 -0.00000000000E+00 -0.10000000000E+04  0.10000000000E+04  0.00000000000E+00 0.  1.
    9000005    2    1    2  501    0  0.16896818914E+02 -0.22932978180E+02 -0.95549031373E+03  0.10104315761E+04  0.32741228818E+03 0.  0.
         13    1    3    3    0    0  0.44040836141E+02 -0.17120004911E+03 -0.55745184033E+03  0.58480903409E+03  0.00000000000E+00 0.  1.
          3    1    3    3  501    0 -0.27144017227E+02  0.14826707093E+03 -0.39803847339E+03  0.42562254205E+03  0.00000000000E+00 0.  1.
         21    1    1    2  502  501 -0.16896818914E+02  0.22932978180E+02 -0.51337003625E+01  0.28944409771E+02  0.00000000000E+00 0. -1.
<mgrwt>
<rscale>  1 0.30000000E+03</rscale>
<asrwt>0</asrwt>
<pdfrwt beam="1">  1        1 0.14318571E+00 0.30000000E+03</pdfrwt>
<pdfrwt beam="2">0</pdfrwt>
<totfact> 0.19472668E+01</totfact>
</mgrwt>
</event>
<event>
 6    1  0.1940992E-004  0.3000000E+03  0.7818608E-02  0.1093470E+00
          1   -1    0    0  502    0  0.00000000000E+00  0.00000000000E+00  0.28111939519E+02  0.28111939519E+02  0.00000000000E+00 0.  1.
         13   -1    0    0    0    0 -0.00000000000E+00 -0.00000000000E+00 -0.10000000000E+04  0.10000000000E+04  0.00000000000E+00 0.  1.
    9000005    2    1    2  501    0  0.12697981325E+02  0.82678611124E+00 -0.92785354924E+03  0.98227570402E+03  0.32216676979E+03 0.  0.
         13    1    3    3    0    0  0.49347029004E+02  0.13425955073E+02 -0.94020956146E+03  0.94159938668E+03  0.00000000000E+00 0.  1.
          1    1    3    3  501    0 -0.36649047679E+02 -0.12599168962E+02  0.12356012214E+02  0.40676317337E+02  0.00000000000E+00 0.  1.
         21    1    1    2  502  501 -0.12697981325E+02 -0.82678611124E+00 -0.44034511239E+02  0.45836235502E+02  0.00000000000E+00 0. -1.
<mgrwt>
<rscale>  1 0.30000000E+03</rscale>
<asrwt>0</asrwt>
<pdfrwt beam="1">  1        1 0.10222545E+00 0.30000000E+03</pdfrwt>
<pdfrwt beam="2">0</pdfrwt>
<totfact> 0.33139337E+01</totfact>
</mgrwt>
</event>
<event>
 6    1  0.1940992E-004  0.3000000E+03  0.7818608E-02  0.1093470E+00
          1   -1    0    0  502    0  0.00000000000E+00  0.00000000000E+00  0.35947138784E+02  0.35947138784E+02  0.00000000000E+00 0.  1.
         13   -1    0    0    0    0 -0.00000000000E+00 -0.00000000000E+00 -0.10000000000E+04  0.10000000000E+04  0.00000000000E+00 0.  1.
    9000005    2    1    2  501    0  0.98403594418E+01 -0.71464062291E+01 -0.96884808963E+03  0.10228743422E+04  0.32780694818E+03 0.  0.
         13    1    3    3    0    0 -0.27255006274E+00 -0.29809224531E+02 -0.98988932130E+03  0.99033809004E+03  0.00000000000E+00 0.  1.
          1    1    3    3  501    0  0.10112909505E+02  0.22662818301E+02  0.21041231673E+02  0.32536252125E+02  0.00000000000E+00 0.  1.
         21    1    1    2  502  501 -0.98403594418E+01  0.71464062291E+01  0.47952284155E+01  0.13072796621E+02  0.00000000000E+00 0. -1.
<mgrwt>
<rscale>  1 0.30000000E+03</rscale>
<asrwt>0</asrwt>
<pdfrwt beam="1">  1        1 0.13071714E+00 0.30000000E+03</pdfrwt>
<pdfrwt beam="2">0</pdfrwt>
<totfact> 0.22675265E+01</totfact>
</mgrwt>
</event>
<event>
 6    1  0.1940992E-004  0.3000000E+03  0.7818608E-02  0.1093470E+00
          1   -1    0    0  502    0  0.00000000000E+00  0.00000000000E+00  0.31030033354E+02  0.31030033354E+02  0.00000000000E+00 0.  1.
         13   -1    0    0    0    0 -0.00000000000E+00 -0.00000000000E+00 -0.10000000000E+04  0.10000000000E+04  0.00000000000E+00 0.  1.
    9000005    2    1    2  501    0 -0.50212117606E+01  0.84817861715E+01 -0.96823307241E+03  0.10211458906E+04  0.32429383928E+03 0.  0.
         13    1    3    3    0    0  0.14968699003E+02 -0.14367919239E+03 -0.26967742565E+03  0.30593085196E+03  0.00000000000E+00 0.  1.
          3    1    3    3  501    0 -0.19989910763E+02  0.15216097856E+03 -0.69855564676E+03  0.71521503868E+03  0.00000000000E+00 0.  1.
         21    1    1    2  502  501  0.50212117606E+01 -0.84817861715E+01 -0.73689423997E+00  0.98841427207E+01  0.00000000000E+00 0.  1.
<mgrwt>
<rscale>  1 0.30000000E+03</rscale>
<asrwt>0</asrwt>
<pdfrwt beam="1">  1        1 0.11283672E+00 0.30000000E+03</pdfrwt>
<pdfrwt beam="2">0</pdfrwt>
<totfact> 0.28584135E+01</totfact>
</mgrwt>
</event>
<event>
 6    1  0.1940992E-004  0.3000000E+03  0.7818608E-02  0.1093470E+00
          3   -1    0    0  502    0  0.00000000000E+00  0.00000000000E+00  0.37025048534E+02  0.37025048534E+02  0.00000000000E+00 0.  1.
         13   -1    0    0    0    0 -0.00000000000E+00 -0.00000000000E+00 -0.10000000000E+04  0.10000000000E+04  0.00000000000E+00 0.  1.
    9000005    2    1    2  501    0 -0.10404250753E+02  0.51506785609E+01 -0.97004617257E+03  0.10234316644E+04  0.32601843036E+03 0.  0.
         13    1    3    3    0    0 -0.58348082050E+02 -0.11638364326E+03 -0.17715629875E+03  0.21984996085E+03  0.00000000000E+00 0.  1.
          3    1    3    3  501    0  0.47943831297E+02  0.12153432182E+03 -0.79288987382E+03  0.80358170359E+03  0.00000000000E+00 0.  1.
         21    1    1    2  502  501  0.10404250753E+02 -0.51506785609E+01  0.70712211010E+01  0.13593384097E+02  0.00000000000E+00 0. -1.
<mgrwt>
<rscale>  1 0.30000000E+03</rscale>
<asrwt>0</asrwt>
<pdfrwt beam="1">  1        3 0.13463682E+00 0.30000000E+03</pdfrwt>
<pdfrwt beam="2">0</pdfrwt>
<totfact> 0.15590478E+00</totfact>
</mgrwt>
</event>
<event>
 6    1  0.1940992E-004  0.3000000E+03  0.7818608E-02  0.1093470E+00
          1   -1    0    0  502    0  0.00000000000E+00  0.00000000000E+00  0.31101469092E+02  0.31101469092E+02  0.00000000000E+00 0.  1.
         13   -1    0    0    0    0 -0.00000000000E+00 -0.00000000000E+00 -0.10000000000E+04  0.10000000000E+04  0.00000000000E+00 0.  1.
    9000005    2    1    2  501    0 -0.16115761974E+02 -0.84564039086E+01 -0.94629515579E+03  0.10020818013E+04  0.32918412189E+03 0.  0.
         13    1    3    3    0    0 -0.10792387411E+03 -0.13182733594E+03 -0.58785413342E+03  0.61204451740E+03  0.00000000000E+00 0.  1.
          1    1    3    3  501    0  0.91808112131E+02  0.12337093204E+03 -0.35844102237E+03  0.39003728391E+03  0.00000000000E+00 0.  1.
         21    1    1    2  502  501  0.16115761974E+02  0.84564039086E+01 -0.22603375118E+02  0.29019667776E+02  0.00000000000E+00 0.  1.
<mgrwt>
<rscale>  1 0.30000000E+03</rscale>
<asrwt>0</asrwt>
<pdfrwt beam="1">  1        1 0.11309649E+00 0.30000000E+03</pdfrwt>
<pdfrwt beam="2">0</pdfrwt>
<totfact> 0.28484115E+01</totfact>
</mgrwt>
</event>
<event>
 6    1  0.1940992E-004  0.3000000E+03  0.7818608E-02  0.1093470E+00
          1   -1    0    0  502    0  0.00000000000E+00  0.00000000000E+00  0.40696969976E+02  0.40696969976E+02  0.00000000000E+00 0.  1.
         13   -1    0    0    0    0 -0.00000000000E+00 -0.00000000000E+00 -0.10000000000E+04  0.10000000000E+04  0.00000000000E+00 0.  1.
    9000005    2    1    2  501    0  0.19296262233E+01 -0.19424204432E+02 -0.95771644344E+03  0.10211127817E+04  0.35365166995E+03 0.  0.
         13    1    3    3    0    0 -0.91593593019E+02  0.13419530418E+03 -0.32525890061E+03  0.36358096536E+03  0.00000000000E+00 0.  1.
          1    1    3    3  501    0  0.93523219243E+02 -0.15361950861E+03 -0.63245754282E+03  0.65753181629E+03  0.00000000000E+00 0.  1.
         21    1    1    2  502  501 -0.19296262233E+01  0.19424204432E+02 -0.15865865889E+01  0.19584188320E+02  0.00000000000E+00 0. -1.
<mgrwt>
<rscale>  1 0.30000000E+03</rscale>
<asrwt>0</asrwt>
<pdfrwt beam="1">  1        1 0.14798929E+00 0.30000000E+03</pdfrwt>
<pdfrwt beam="2">0</pdfrwt>
<totfact> 0.18394140E+01</totfact>
</mgrwt>
</event>
<event>
 6    1  0.1940992E-004  0.3000000E+03  0.7818608E-02  0.1093470E+00
          1   -1    0    0  502    0  0.00000000000E+00  0.00000000000E+00  0.36746454727E+02  0.36746454727E+02  0.00000000000E+00 0.  1.
         13   -1    0    0    0    0 -0.00000000000E+00 -0.00000000000E+00 -0.10000000000E+04  0.10000000000E+04  0.00000000000E+00 0.  1.
    9000005    2    1    2  501    0  0.31334995485E+02 -0.16648173861E+02 -0.93851935859E+03  0.99349343604E+03  0.32396230856E+03 0.  0.
         13    1    3    3    0    0  0.48926813355E+02 -0.14834923972E+03 -0.27029476666E+03  0.31218678844E+03  0.00000000000E+00 0.  1.
          3    1    3    3  501    0 -0.17591817870E+02  0.13170106586E+03 -0.66822459192E+03  0.68130664759E+03  0.00000000000E+00 0.  1.
         21    1    1    2  502  501 -0.31334995485E+02  0.16648173861E+02 -0.24734186685E+02  0.43253018691E+02  0.00000000000E+00 0.  1.
<mgrwt>
<rscale>  1 0.30000000E+03</rscale>
<asrwt>0</asrwt>
<pdfrwt beam="1">  1        1 0.13362375E+00 0.30000000E+03</pdfrwt>
<pdfrwt beam="2">0</pdfrwt>
<totfact> 0.21870446E+01</totfact>
</mgrwt>
</event>
<event>
 6    1  0.1940992E-004  0.3000000E+03  0.7818608E-02  0.1093470E+00
          1   -1    0    0  502    0  0.00000000000E+00  0.00000000000E+00  0.47885817837E+02  0.47885817837E+02  0.00000000000E+00 0.  1.
         13   -1    0    0    0    0 -0.00000000000E+00 -0.00000000000E+00 -0.10000000000E+04  0.10000000000E+04  0.00000000000E+00 0.  1.
    9000005    2    1    2  501    0  0.51413048821E+01 -0.34153386494E+02 -0.96008559730E+03  0.10124396575E+04  0.31949463074E+03 0.  0.
         13    1    3    3    0    0 -0.12005713780E+03  0.84210075588E+02 -0.38023644737E+03  0.40753504030E+03  0.00000000000E+00 0.  1.
          3    1    3    3  501    0  0.12519844269E+03 -0.11836346208E+03 -0.57984914993E+03  0.60490461717E+03  0.00000000000E+00 0.  1.
         21    1    1    2  502  501 -0.51413048821E+01  0.34153386494E+02  0.79714151335E+01  0.35446160358E+02  0.00000000000E+00 0. -1.
<mgrwt>
<rscale>  1 0.30000000E+03</rscale>
<asrwt>0</asrwt>
<pdfrwt beam="1">  1        1 0.17413061E+00 0.30000000E+03</pdfrwt>
<pdfrwt beam="2">0</pdfrwt>
<totfact> 0.13639955E+01</totfact>
</mgrwt>
</event>
<event>
 6    1  0.1940992E-004  0.3000000E+03  0.7818608E-02  0.1093470E+00
          1   -1    0    0  502    0  0.00000000000E+00  0.00000000000E+00  0.36162918785E+02  0.36162918785E+02  0.00000000000E+00 0.  1.
         13   -1    0    0    0    0 -0.00000000000E+00 -0.00000000000E+00 -0.10000000000E+04  0.10000000000E+04  0.00000000000E+00 0.  1.
    9000005    2    1    2  501    0 -0.28499182414E+02 -0.39082969603E+02 -0.87415960717E+03  0.93427213774E+03  0.32614372083E+03 0.  0.
         13    1    3    3    0    0  0.80015957376E+02  0.11554088807E+03 -0.35446226156E+03  0.38130794002E+03  0.00000000000E+00 0.  1.
          3    1    3    3  501    0 -0.10851513979E+03 -0.15462385767E+03 -0.51969734561E+03  0.55296419772E+03  0.00000000000E+00 0.  1.
         21    1    1    2  502  501  0.28499182414E+02  0.39082969603E+02 -0.89677474041E+02  0.10189078104E+03  0.00000000000E+00 0. -1.
<mgrwt>
<rscale>  1 0.30000000E+03</rscale>
<asrwt>0</asrwt>
<pdfrwt beam="1">  1        1 0.13150180E+00 0.30000000E+03</pdfrwt>
<pdfrwt beam="2">0</pdfrwt>
<totfact> 0.22454221E+01</totfact>
</mgrwt>
</event>
<event>
 6    1  0.1940992E-004  0.3000000E+03  0.7818608E-02  0.1093470E+00
          1   -1    0    0  502    0  0.00000000000E+00  0.00000000000E+00  0.29604804988E+02  0.29604804988E+02  0.00000000000E+00 0.  1.
         13   -1    0    0    0    0 -0.00000000000E+00 -0.00000000000E+00 -0.10000000000E+04  0.10000000000E+04  0.00000000000E+00 0.  1.
    9000005    2    1    2  501    0  0.47489235992E+01 -0.13003555790E+02 -0.93243024657E+03  0.98919463240E+03  0.32998213786E+03 0.  0.
         13    1    3    3    0    0 -0.16178935159E+03 -0.94871997256E+01 -0.50895230387E+03  0.53413317521E+03  0.00000000000E+00 0.  1.
          1    1    3    3  501    0  0.16653827519E+03 -0.35163560644E+01 -0.42347794269E+03  0.45506145718E+03  0.00000000000E+00 0.  1.
         21    1    1    2  502  501 -0.47489235992E+01  0.13003555790E+02 -0.37964948445E+02  0.40410172593E+02  0.00000000000E+00 0.  1.
<mgrwt>
<rscale>  1 0.30000000E+03</rscale>
<asrwt>0</asrwt>
<pdfrwt beam="1">  1        1 0.10765406E+00 0.30000000E+03</pdfrwt>
<pdfrwt beam="2">0</pdfrwt>
<totfact> 0.30688552E+01</totfact>
</mgrwt>
</event>
<event>
 6    1  0.1940992E-004  0.3000000E+03  0.7818608E-02  0.1093470E+00
          1   -1    0    0  502    0  0.00000000000E+00  0.00000000000E+00  0.32260397041E+02  0.32260397041E+02  0.00000000000E+00 0.  1.
         13   -1    0    0    0    0 -0.00000000000E+00 -0.00000000000E+00 -0.10000000000E+04  0.10000000000E+04  0.00000000000E+00 0.  1.
    9000005    2    1    2  501    0 -0.32068407745E+01 -0.10882770817E+02 -0.96971032784E+03  0.10207450905E+04  0.31851797642E+03 0.  0.
         13    1    3    3    0    0  0.68083889933E+02 -0.55502946509E+02 -0.91762516332E+03  0.92181990296E+03  0.00000000000E+00 0.  1.
          1    1    3    3  501    0 -0.71290730707E+02  0.44620175692E+02 -0.52085164521E+02  0.98925187525E+02  0.00000000000E+00 0.  1.
         21    1    1    2  502  501  0.32068407745E+01  0.10882770817E+02  0.19707248845E+01  0.11515306552E+02  0.00000000000E+00 0. -1.
<mgrwt>
<rscale>  1 0.30000000E+03</rscale>
<asrwt>0</asrwt>
<pdfrwt beam="1">  1        1 0.11731078E+00 0.30000000E+03</pdfrwt>
<pdfrwt beam="2">0</pdfrwt>
<totfact> 0.26928150E+01</totfact>
</mgrwt>
</event>
<event>
 6    1  0.1940992E-004  0.3000000E+03  0.7818608E-02  0.1093470E+00
          1   -1    0    0  502    0  0.00000000000E+00  0.00000000000E+00  0.28883414865E+02  0.28883414865E+02  0.00000000000E+00 0.  1.
         13   -1    0    0    0    0 -0.00000000000E+00 -0.00000000000E+00 -0.10000000000E+04  0.10000000000E+04  0.00000000000E+00 0.  1.
    9000005    2    1    2  501    0  0.17983487898E+02 -0.13211545326E+01 -0.94364228148E+03  0.99602023413E+03  0.31823010563E+03 0.  0.
         13    1    3    3    0    0  0.81734554636E+02 -0.90139323834E+02 -0.14219300746E+03  0.18714830080E+03  0.00000000000E+00 0.  1.
          3    1    3    3  501    0 -0.63751066738E+02  0.88818169302E+02 -0.80144927402E+03  0.80887193333E+03  0.00000000000E+00 0.  1.
         21    1    1    2  502  501 -0.17983487898E+02  0.13211545326E+01 -0.27474303660E+02  0.32863180732E+02  0.00000000000E+00 0.  1.
<mgrwt>
<rscale>  1 0.30000000E+03</rscale>
<asrwt>0</asrwt>
<pdfrwt beam="1">  1        1 0.10503082E+00 0.30000000E+03</pdfrwt>
<pdfrwt beam="2">0</pdfrwt>
<totfact> 0.31838845E+01</totfact>
</mgrwt>
</event>
<event>
 6    1  0.1940992E-004  0.3000000E+03  0.7818608E-02  0.1093470E+00
          1   -1    0    0  502    0  0.00000000000E+00  0.00000000000E+00  0.32888694598E+02  0.32888694598E+02  0.00000000000E+00 0.  1.
         13   -1    0    0    0    0 -0.00000000000E+00 -0.00000000000E+00 -0.10000000000E+04  0.10000000000E+04  0.00000000000E+00 0.  1.
    9000005    2    1    2  501    0  0.10434804374E+02 -0.28491236503E+00 -0.97037669151E+03  0.10219511874E+04  0.32038155325E+03 0.  0.
         13    1    3    3    0    0  0.89061351407E+02  0.53232177468E+02 -0.89391359422E+03  0.89991505319E+03  0.00000000000E+00 0.  1.
          1    1    3    3  501    0 -0.78626547033E+02 -0.53517089833E+02 -0.76463097294E+02  0.12203613420E+03  0.00000000000E+00 0.  1.
         21    1    1    2  502  501 -0.10434804374E+02  0.28491236503E+00  0.32653861127E+01  0.10937507204E+02  0.00000000000E+00 0.  1.
<mgrwt>
<rscale>  1 0.30000000E+03</rscale>
<asrwt>0</asrwt>
<pdfrwt beam="1">  1        1 0.11959551E+00 0.30000000E+03</pdfrwt>
<pdfrwt beam="2">0</pdfrwt>
<totfact> 0.26133407E+01</totfact>
</mgrwt>
</event>
<event>
 6    1  0.1940992E-004  0.3000000E+03  0.7818608E-02  0.1093470E+00
          1   -1    0    0  502    0  0.00000000000E+00  0.00000000000E+00  0.30854617429E+02  0.30854617429E+02  0.00000000000E+00 0.  1.
         13   -1    0    0    0    0 -0.00000000000E+00 -0.00000000000E+00 -0.10000000000E+04  0.10000000000E+04  0.00000000000E+00 0.  1.
    9000005    2    1    2  501    0 -0.10023195132E+02 -0.82594694438E+01 -0.95568119975E+03  0.10121471992E+04  0.33308664654E+03 0.  0.
         13    1    3    3    0    0 -0.16408440753E+03 -0.49147623375E+02 -0.55849441594E+03  0.58417051818E+03  0.00000000000E+00 0.  1.
          1    1    3    3  501    0  0.15406121240E+03  0.40888153931E+02 -0.39718678381E+03  0.42797668106E+03  0.00000000000E+00 0.  1.
         21    1    1    2  502  501  0.10023195132E+02  0.82594694438E+01 -0.13464182824E+02  0.18707418188E+02  0.00000000000E+00 0.  1.
<mgrwt>
<rscale>  1 0.30000000E+03</rscale>
<asrwt>0</asrwt>
<pdfrwt beam="1">  1        1 0.11219885E+00 0.30000000E+03</pdfrwt>
<pdfrwt beam="2">0</pdfrwt>
<totfact> 0.28831885E+01</totfact>
</mgrwt>
</event>
<event>
 6    1  0.1940992E-004  0.3000000E+03  0.7818608E-02  0.1093470E+00
          1   -1    0    0  502    0  0.00000000000E+00  0.00000000000E+00  0.27405216428E+02  0.27405216428E+02  0.00000000000E+00 0.  1.
         13   -1    0    0    0    0 -0.00000000000E+00 -0.00000000000E+00 -0.10000000000E+04  0.10000000000E+04  0.00000000000E+00 0.  1.
    9000005    2    1    2  501    0 -0.14917528121E+01  0.10409571556E+02 -0.96286290140E+03  0.10130771308E+04  0.31481696524E+03 0.  0.
         13    1    3    3    0    0 -0.45424751132E+02  0.92373007460E+02 -0.94462684855E+02  0.13971177242E+03  0.00000000000E+00 0.  1.
          3    1    3    3  501    0  0.43932998320E+02 -0.81963435904E+02 -0.86840021655E+03  0.87336535841E+03  0.00000000000E+00 0.  1.
         21    1    1    2  502  501  0.14917528121E+01 -0.10409571556E+02 -0.97318821691E+01  0.14328085601E+02  0.00000000000E+00 0.  1.
<mgrwt>
<rscale>  1 0.30000000E+03</rscale>
<asrwt>0</asrwt>
<pdfrwt beam="1">  1        1 0.99655543E-01 0.30000000E+03</pdfrwt>
<pdfrwt beam="2">0</pdfrwt>
<totfact> 0.34399970E+01</totfact>
</mgrwt>
</event>
<event>
 6    1  0.1940992E-004  0.3000000E+03  0.7818608E-02  0.1093470E+00
          1   -1    0    0  502    0  0.00000000000E+00  0.00000000000E+00  0.34612687114E+02  0.34612687114E+02  0.00000000000E+00 0.  1.
         13   -1    0    0    0    0 -0.00000000000E+00 -0.00000000000E+00 -0.10000000000E+04  0.10000000000E+04  0.00000000000E+00 0.  1.
    9000005    2    1    2  501    0  0.13317375405E+02  0.55617334646E+01 -0.97033979174E+03  0.10193544954E+04  0.31195510982E+03 0.  0.
         13    1    3    3    0    0  0.14633894140E+03  0.71331472219E+02 -0.55012508569E+03  0.57370800466E+03  0.00000000000E+00 0.  1.
          3    1    3    3  501    0 -0.13302156599E+03 -0.65769738755E+02 -0.42021470605E+03  0.44564649077E+03  0.00000000000E+00 0.  1.
         21    1    1    2  502  501 -0.13317375405E+02 -0.55617334646E+01  0.49524788547E+01  0.15258191689E+02  0.00000000000E+00 0.  1.
<mgrwt>
<rscale>  1 0.30000000E+03</rscale>
<asrwt>0</asrwt>
<pdfrwt beam="1">  1        1 0.12586458E+00 0.30000000E+03</pdfrwt>
<pdfrwt beam="2">0</pdfrwt>
<totfact> 0.24106833E+01</totfact>
</mgrwt>
</event>
<event>
 6    1  0.1940992E-004  0.3000000E+03  0.7818608E-02  0.1093470E+00
          1   -1    0    0  502    0  0.00000000000E+00  0.00000000000E+00  0.32795791965E+02  0.32795791965E+02  0.00000000000E+00 0.  1.
         13   -1    0    0    0    0 -0.00000000000E+00 -0.00000000000E+00 -0.10000000000E+04  0.10000000000E+04  0.00000000000E+00 0.  1.
    9000005    2    1    2  501    0  0.17602909042E+02  0.14620702579E+02 -0.94485671442E+03  0.10008108295E+04  0.32915722442E+03 0.  0.
         13    1    3    3    0    0  0.15483287635E+03  0.72712414646E+02 -0.62428056071E+03  0.64729169107E+03  0.00000000000E+00 0.  1.
          1    1    3    3  501    0 -0.13722996731E+03 -0.58091712067E+02 -0.32057615370E+03  0.35351913847E+03  0.00000000000E+00 0.  1.
         21    1    1    2  502  501 -0.17602909042E+02 -0.14620702579E+02 -0.22347493617E+02  0.31984962430E+02  0.00000000000E+00 0.  1.
<mgrwt>
<rscale>  1 0.30000000E+03</rscale>
<asrwt>0</asrwt>
<pdfrwt beam="1">  1        1 0.11925768E+00 0.30000000E+03</pdfrwt>
<pdfrwt beam="2">0</pdfrwt>
<totfact> 0.26248899E+01</totfact>
</mgrwt>
</event>
