<event>
 6    1  0.2603926E-003  0.6615184E+03  0.7818608E-02  0.9785403E-01
          1   -1    0    0  502    0  0.00000000000E+00  0.00000000000E+00  0.10948717607E+03  0.10948717607E+03  0.00000000000E+00 0.  1.
         13   -1    0    0    0    0 -0.00000000000E+00 -0.00000000000E+00 -0.10000000000E+04  0.10000000000E+04  0.00000000000E+00 0.  1.
    9000005    2    1    2  501    0  0.12214152839E-02  0.14589118598E-02 -0.89059833258E+03  0.11094016462E+04  0.66151842204E+03 0.  0.
         13    1    3    3    0    0 -0.42009432470E+01  0.32943825554E+03 -0.49433549237E+03  0.59406631882E+03  0.00000000000E+00 0.  1.
          3    1    3    3  501    0  0.42021646623E+01 -0.32943679663E+03 -0.39626284022E+03  0.51533532743E+03  0.00000000000E+00 0.  1.
         21    1    1    2  502  501 -0.12214152839E-02 -0.14589118598E-02  0.85508656610E-01  0.85529823070E-01  0.00000000000E+00 0. -1.
<mgrwt>
<rscale>  1 0.66151842E+03</rscale>
<asrwt>0</asrwt>
<pdfrwt beam="1">  1        1 0.39813603E+00 0.66151842E+03</pdfrwt>
<pdfrwt beam="2">0</pdfrwt>
<totfact> 0.13607477E+00</totfact>
</mgrwt>
</event>
<event>
 6    1  0.2603926E-003  0.5202273E+03  0.7818608E-02  0.1008630E+00
          1   -1    0    0  502    0  0.00000000000E+00  0.00000000000E+00  0.67746479802E+02  0.67746479802E+02  0.00000000000E+00 0.  1.
         13   -1    0    0    0    0 -0.00000000000E+00 -0.00000000000E+00 -0.10000000000E+04  0.10000000000E+04  0.00000000000E+00 0.  1.
    9000005    2    1    2  501    0 -0.31699269057E-01  0.11058570499E-01 -0.93233744636E+03  0.10676560877E+04  0.52022726432E+03 0.  0.
         13    1    3    3    0    0  0.22878782110E+03  0.12373038580E+03 -0.46692154198E+03  0.53447993584E+03  0.00000000000E+00 0.  1.
          3    1    3    3  501    0 -0.22881952037E+03 -0.12371932723E+03 -0.46541590438E+03  0.53317615183E+03  0.00000000000E+00 0.  1.
         21    1    1    2  502  501  0.31699269057E-01 -0.11058570499E-01  0.83926162628E-01  0.90392125839E-01  0.00000000000E+00 0. -1.
<mgrwt>
<rscale>  1 0.52022727E+03</rscale>
<asrwt>0</asrwt>
<pdfrwt beam="1">  1        1 0.24635136E+00 0.52022727E+03</pdfrwt>
<pdfrwt beam="2">0</pdfrwt>
<totfact> 0.63842921E+00</totfact>
</mgrwt>
</event>
<event>
 6    1  0.2603926E-003  0.6498613E+03  0.7818608E-02  0.9807039E-01
          1   -1    0    0  502    0  0.00000000000E+00  0.00000000000E+00  0.10558012230E+03  0.10558012230E+03  0.00000000000E+00 0.  1.
         13   -1    0    0    0    0 -0.00000000000E+00 -0.00000000000E+00 -0.10000000000E+04  0.10000000000E+04  0.00000000000E+00 0.  1.
    9000005    2    1    2  501    0 -0.77159397673E-04 -0.19869544734E-03 -0.89441998613E+03  0.11055798832E+04  0.64986134401E+03 0.  0.
         13    1    3    3    0    0  0.27410776548E+02  0.12263910537E+03  0.62565717143E+02  0.14037866575E+03  0.00000000000E+00 0.  1.
          3    1    3    3  501    0 -0.27410853707E+02 -0.12263930406E+03 -0.95698570328E+03  0.96520121740E+03  0.00000000000E+00 0.  1.
         21    1    1    2  502  501  0.77159397674E-04  0.19869544735E-03  0.10843794224E-03  0.23914899281E-03  0.00000000000E+00 0.  1.
<mgrwt>
<rscale>  1 0.64986134E+03</rscale>
<asrwt>0</asrwt>
<pdfrwt beam="1">  1        1 0.38392853E+00 0.64986134E+03</pdfrwt>
<pdfrwt beam="2">0</pdfrwt>
<totfact> 0.15767449E+00</totfact>
</mgrwt>
</event>
<event>
 6    1  0.2603926E-003  0.6514848E+03  0.7818608E-02  0.9803997E-01
          1   -1    0    0  502    0  0.00000000000E+00  0.00000000000E+00  0.10612367810E+03  0.10612367810E+03  0.00000000000E+00 0.  1.
         13   -1    0    0    0    0 -0.00000000000E+00 -0.00000000000E+00 -0.10000000000E+04  0.10000000000E+04  0.00000000000E+00 0.  1.
    9000005    2    1    2  501    0 -0.21388711944E-01  0.60567080823E-04 -0.89388328735E+03  0.11061011837E+04  0.65148483997E+03 0.  0.
         13    1    3    3    0    0 -0.20643473771E+03  0.21505106390E+03 -0.66994270219E+03  0.73327040390E+03  0.00000000000E+00 0.  1.
          1    1    3    3  501    0  0.20641334900E+03 -0.21505100333E+03 -0.22394058516E+03  0.37283077980E+03  0.00000000000E+00 0.  1.
         21    1    1    2  502  501  0.21388711944E-01 -0.60567080823E-04  0.69654562706E-02  0.22494404817E-01  0.00000000000E+00 0.  1.
<mgrwt>
<rscale>  1 0.65148484E+03</rscale>
<asrwt>0</asrwt>
<pdfrwt beam="1">  1        1 0.38590510E+00 0.65148484E+03</pdfrwt>
<pdfrwt beam="2">0</pdfrwt>
<totfact> 0.15448586E+00</totfact>
</mgrwt>
</event>
<event>
 6    1  0.2603926E-003  0.6435964E+03  0.7818608E-02  0.9818870E-01
          1   -1    0    0  502    0  0.00000000000E+00  0.00000000000E+00  0.10355416544E+03  0.10355416544E+03  0.00000000000E+00 0.  1.
         13   -1    0    0    0    0 -0.00000000000E+00 -0.00000000000E+00 -0.10000000000E+04  0.10000000000E+04  0.00000000000E+00 0.  1.
    9000005    2    1    2  501    0  0.16767029891E-04 -0.10682935709E-04 -0.89644590961E+03  0.11035540878E+04  0.64359642312E+03 0.  0.
         13    1    3    3    0    0  0.12517557342E+03 -0.21613241316E+03 -0.10030190578E+03  0.26915166078E+03  0.00000000000E+00 0.  1.
          1    1    3    3  501    0 -0.12517555666E+03  0.21613240247E+03 -0.79614400383E+03  0.83440242702E+03  0.00000000000E+00 0.  1.
         21    1    1    2  502  501 -0.16767029893E-04  0.10682935720E-04  0.75052339133E-04  0.77640917154E-04  0.00000000000E+00 0. -1.
<mgrwt>
<rscale>  1 0.64359642E+03</rscale>
<asrwt>0</asrwt>
<pdfrwt beam="1">  1        1 0.37656140E+00 0.64359642E+03</pdfrwt>
<pdfrwt beam="2">0</pdfrwt>
<totfact> 0.17012630E+00</totfact>
</mgrwt>
</event>
<event>
 6    1  0.2603926E-003  0.6590818E+03  0.7818608E-02  0.9789885E-01
          1   -1    0    0  502    0  0.00000000000E+00  0.00000000000E+00  0.10859766069E+03  0.10859766069E+03  0.00000000000E+00 0.  1.
         13   -1    0    0    0    0 -0.00000000000E+00 -0.00000000000E+00 -0.10000000000E+04  0.10000000000E+04  0.00000000000E+00 0.  1.
    9000005    2    1    2  501    0  0.19608467277E-04  0.12270509274E-04 -0.89140277877E+03  0.11085972206E+04  0.65908184892E+03 0.  0.
         13    1    3    3    0    0  0.44713328098E+02 -0.28869325918E+03 -0.70219972615E+03  0.76054423607E+03  0.00000000000E+00 0.  1.
          1    1    3    3  501    0 -0.44713308489E+02  0.28869327145E+03 -0.18920305262E+03  0.34805298456E+03  0.00000000000E+00 0.  1.
         21    1    1    2  502  501 -0.19608467277E-04 -0.12270509313E-04  0.43945482627E-03  0.44006317924E-03  0.00000000000E+00 0.  1.
<mgrwt>
<rscale>  1 0.65908185E+03</rscale>
<asrwt>0</asrwt>
<pdfrwt beam="1">  1        1 0.39490142E+00 0.65908185E+03</pdfrwt>
<pdfrwt beam="2">0</pdfrwt>
<totfact> 0.14072485E+00</totfact>
</mgrwt>
</event>
<event>
 6    1  0.2603926E-003  0.6656019E+03  0.7818608E-02  0.9777936E-01
          1   -1    0    0  502    0  0.00000000000E+00  0.00000000000E+00  0.11075662738E+03  0.11075662738E+03  0.00000000000E+00 0.  1.
         13   -1    0    0    0    0 -0.00000000000E+00 -0.00000000000E+00 -0.10000000000E+04  0.10000000000E+04  0.00000000000E+00 0.  1.
    9000005    2    1    2  501    0  0.14468741199E-04  0.81023613063E-05 -0.88924352382E+03  0.11107564753E+04  0.66560191008E+03 0.  0.
         13    1    3    3    0    0 -0.24048665409E+03 -0.15956069915E+03 -0.72117481189E+03  0.77677960633E+03  0.00000000000E+00 0.  1.
          1    1    3    3  501    0  0.24048666856E+03  0.15956070725E+03 -0.16806871194E+03  0.33397686894E+03  0.00000000000E+00 0.  1.
         21    1    1    2  502  501 -0.14468741201E-04 -0.81023613200E-05  0.15119989053E-03  0.15210654038E-03  0.00000000000E+00 0. -1.
<mgrwt>
<rscale>  1 0.66560191E+03</rscale>
<asrwt>0</asrwt>
<pdfrwt beam="1">  1        1 0.40275222E+00 0.66560191E+03</pdfrwt>
<pdfrwt beam="2">0</pdfrwt>
<totfact> 0.12967470E+00</totfact>
</mgrwt>
</event>
<event>
 6    1  0.2603926E-003  0.6562866E+03  0.7818608E-02  0.9795054E-01
          1   -1    0    0  502    0  0.00000000000E+00  0.00000000000E+00  0.10819460525E+03  0.10819460525E+03  0.00000000000E+00 0.  1.
         13   -1    0    0    0    0 -0.00000000000E+00 -0.00000000000E+00 -0.10000000000E+04  0.10000000000E+04  0.00000000000E+00 0.  1.
    9000005    2    1    2  501    0  0.22648585016E+00  0.16946650380E+00 -0.89227872790E+03  0.11076431898E+04  0.65628654383E+03 0.  0.
         13    1    3    3    0    0  0.26956692869E+02 -0.31762889702E+03 -0.31513974935E+03  0.44824975307E+03  0.00000000000E+00 0.  1.
          1    1    3    3  501    0 -0.26730207019E+02  0.31779836352E+03 -0.57713897855E+03  0.65939343672E+03  0.00000000000E+00 0.  1.
         21    1    1    2  502  501 -0.22648585016E+00 -0.16946650380E+00  0.47333315013E+00  0.55141545793E+00  0.00000000000E+00 0. -1.
<mgrwt>
<rscale>  1 0.65628660E+03</rscale>
<asrwt>0</asrwt>
<pdfrwt beam="1">  1        1 0.39343576E+00 0.65628660E+03</pdfrwt>
<pdfrwt beam="2">0</pdfrwt>
<totfact> 0.14292601E+00</totfact>
</mgrwt>
</event>
<event>
 6    1  0.2603926E-003  0.6399501E+03  0.7818608E-02  0.9825822E-01
          1   -1    0    0  502    0  0.00000000000E+00  0.00000000000E+00  0.10239522884E+03  0.10239522884E+03  0.00000000000E+00 0.  1.
         13   -1    0    0    0    0 -0.00000000000E+00 -0.00000000000E+00 -0.10000000000E+04  0.10000000000E+04  0.00000000000E+00 0.  1.
    9000005    2    1    2  501    0  0.21496583986E-03  0.28118258626E-04 -0.89761597054E+03  0.11023840274E+04  0.63995008649E+03 0.  0.
         13    1    3    3    0    0 -0.29567952045E+03  0.80793602923E+02 -0.29064658531E+03  0.42240907027E+03  0.00000000000E+00 0.  1.
          1    1    3    3  501    0  0.29567973542E+03 -0.80793574805E+02 -0.60696938523E+03  0.67997495709E+03  0.00000000000E+00 0.  1.
         21    1    1    2  502  501 -0.21496583989E-03 -0.28118258626E-04  0.11199378359E-01  0.11201476536E-01  0.00000000000E+00 0.  1.
<mgrwt>
<rscale>  1 0.63995009E+03</rscale>
<asrwt>0</asrwt>
<pdfrwt beam="1">  1        1 0.37234707E+00 0.63995009E+03</pdfrwt>
<pdfrwt beam="2">0</pdfrwt>
<totfact> 0.17766712E+00</totfact>
</mgrwt>
</event>
<event>
 6    1  0.2603926E-003  0.6552519E+03  0.7818608E-02  0.9796974E-01
          1   -1    0    0  502    0  0.00000000000E+00  0.00000000000E+00  0.10944982883E+03  0.10944982883E+03  0.00000000000E+00 0.  1.
         13   -1    0    0    0    0 -0.00000000000E+00 -0.00000000000E+00 -0.10000000000E+04  0.10000000000E+04  0.00000000000E+00 0.  1.
    9000005    2    1    2  501    0  0.90373975435E+00  0.72474409851E+00 -0.89248380171E+03  0.11071957377E+04  0.65525088582E+03 0.  0.
         13    1    3    3    0    0  0.32540540402E+03  0.30899334601E+01 -0.37644547031E+03  0.49760367439E+03  0.00000000000E+00 0.  1.
          1    1    3    3  501    0 -0.32450166426E+03 -0.23651893616E+01 -0.51603833140E+03  0.60959206336E+03  0.00000000000E+00 0.  1.
         21    1    1    2  502  501 -0.90373975435E+00 -0.72474409851E+00  0.19336305418E+01  0.22540910860E+01  0.00000000000E+00 0.  1.
<mgrwt>
<rscale>  1 0.65525191E+03</rscale>
<asrwt>0</asrwt>
<pdfrwt beam="1">  1        1 0.39800022E+00 0.65525191E+03</pdfrwt>
<pdfrwt beam="2">0</pdfrwt>
<totfact> 0.13642461E+00</totfact>
</mgrwt>
</event>
<event>
 6    1  0.2603926E-003  0.6633793E+03  0.7818608E-02  0.9781993E-01
          1   -1    0    0  502    0  0.00000000000E+00  0.00000000000E+00  0.11002187420E+03  0.11002187420E+03  0.00000000000E+00 0.  1.
         13   -1    0    0    0    0 -0.00000000000E+00 -0.00000000000E+00 -0.10000000000E+04  0.10000000000E+04  0.00000000000E+00 0.  1.
    9000005    2    1    2  501    0 -0.22157463775E-04  0.77154040525E-04 -0.88998197507E+03  0.11100180241E+04  0.66337930167E+03 0.  0.
         13    1    3    3    0    0  0.16243094258E+03 -0.28912262108E+03 -0.45587334663E+03  0.56373416545E+03  0.00000000000E+00 0.  1.
          3    1    3    3  501    0 -0.16243096474E+03  0.28912269823E+03 -0.43410862844E+03  0.54628385865E+03  0.00000000000E+00 0.  1.
         21    1    1    2  502  501  0.22157463790E-04 -0.77154040498E-04  0.38492689245E-02  0.38501058365E-02  0.00000000000E+00 0. -1.
<mgrwt>
<rscale>  1 0.66337930E+03</rscale>
<asrwt>0</asrwt>
<pdfrwt beam="1">  1        1 0.40008039E+00 0.66337930E+03</pdfrwt>
<pdfrwt beam="2">0</pdfrwt>
<totfact> 0.13333999E+00</totfact>
</mgrwt>
</event>
<event>
 6    1  0.2603926E-003  0.6542938E+03  0.7818608E-02  0.9798755E-01
          1   -1    0    0  502    0  0.00000000000E+00  0.00000000000E+00  0.10703091685E+03  0.10703091685E+03  0.00000000000E+00 0.  1.
         13   -1    0    0    0    0 -0.00000000000E+00 -0.00000000000E+00 -0.10000000000E+04  0.10000000000E+04  0.00000000000E+00 0.  1.
    9000005    2    1    2  501    0  0.55844453486E-03  0.12341392846E-04 -0.89297487944E+03  0.11070250937E+04  0.65429383520E+03 0.  0.
         13    1    3    3    0    0 -0.42602026321E+02  0.25862875195E+03 -0.11527630402E+03  0.28634313376E+03  0.00000000000E+00 0.  1.
          1    1    3    3  501    0  0.42602584766E+02 -0.25862873961E+03 -0.77769857542E+03  0.82068195995E+03  0.00000000000E+00 0.  1.
         21    1    1    2  502  501 -0.55844453487E-03 -0.12341392800E-04  0.57962927900E-02  0.58231454315E-02  0.00000000000E+00 0.  1.
<mgrwt>
<rscale>  1 0.65429384E+03</rscale>
<asrwt>0</asrwt>
<pdfrwt beam="1">  1        1 0.38920415E+00 0.65429384E+03</pdfrwt>
<pdfrwt beam="2">0</pdfrwt>
<totfact> 0.14929703E+00</totfact>
</mgrwt>
</event>
<event>
 6    1  0.2603926E-003  0.6398359E+03  0.7818608E-02  0.9826041E-01
          1   -1    0    0  502    0  0.00000000000E+00  0.00000000000E+00  0.10366619517E+03  0.10366619517E+03  0.00000000000E+00 0.  1.
         13   -1    0    0    0    0 -0.00000000000E+00 -0.00000000000E+00 -0.10000000000E+04  0.10000000000E+04  0.00000000000E+00 0.  1.
    9000005    2    1    2  501    0  0.13626876765E+00  0.33095676545E-01 -0.89764839831E+03  0.11023441435E+04  0.63983587282E+03 0.  0.
         13    1    3    3    0    0 -0.20308460365E+03  0.61373293452E+02 -0.36318589063E+02  0.21524190414E+03  0.00000000000E+00 0.  1.
          1    1    3    3  501    0  0.20322087242E+03 -0.61340197775E+02 -0.86132980924E+03  0.88710223940E+03  0.00000000000E+00 0.  1.
         21    1    1    2  502  501 -0.13626876765E+00 -0.33095676545E-01  0.13145934749E+01  0.13220516272E+01  0.00000000000E+00 0. -1.
<mgrwt>
<rscale>  1 0.63983589E+03</rscale>
<asrwt>0</asrwt>
<pdfrwt beam="1">  1        1 0.37696878E+00 0.63983589E+03</pdfrwt>
<pdfrwt beam="2">0</pdfrwt>
<totfact> 0.16954187E+00</totfact>
</mgrwt>
</event>
<event>
 6    1  0.2603926E-003  0.6566059E+03  0.7818608E-02  0.9794462E-01
          1   -1    0    0  502    0  0.00000000000E+00  0.00000000000E+00  0.10783435218E+03  0.10783435218E+03  0.00000000000E+00 0.  1.
         13   -1    0    0    0    0 -0.00000000000E+00 -0.00000000000E+00 -0.10000000000E+04  0.10000000000E+04  0.00000000000E+00 0.  1.
    9000005    2    1    2  501    0  0.22904067147E-02 -0.69150503201E-02 -0.89221687735E+03  0.11077826073E+04  0.65660593117E+03 0.  0.
         13    1    3    3    0    0 -0.17050363412E+03 -0.26587832640E+03 -0.29500677904E+03  0.43219413852E+03  0.00000000000E+00 0.  1.
          3    1    3    3  501    0  0.17050592453E+03  0.26587141135E+03 -0.59721009831E+03  0.67558846881E+03  0.00000000000E+00 0.  1.
         21    1    1    2  502  501 -0.22904067147E-02  0.69150503201E-02  0.51229524639E-01  0.51744836251E-01  0.00000000000E+00 0. -1.
<mgrwt>
<rscale>  1 0.65660593E+03</rscale>
<asrwt>0</asrwt>
<pdfrwt beam="1">  1        1 0.39212574E+00 0.65660593E+03</pdfrwt>
<pdfrwt beam="2">0</pdfrwt>
<totfact> 0.14484505E+00</totfact>
</mgrwt>
</event>
<event>
 6    1  0.2603926E-003  0.6496844E+03  0.7818608E-02  0.9807372E-01
          1   -1    0    0  502    0  0.00000000000E+00  0.00000000000E+00  0.10552254168E+03  0.10552254168E+03  0.00000000000E+00 0.  1.
         13   -1    0    0    0    0 -0.00000000000E+00 -0.00000000000E+00 -0.10000000000E+04  0.10000000000E+04  0.00000000000E+00 0.  1.
    9000005    2    1    2  501    0 -0.14995097892E-04  0.31512816804E-04 -0.89447754320E+03  0.11055224499E+04  0.64968439410E+03 0.  0.
         13    1    3    3    0    0 -0.56014359358E+02  0.30046155250E+03 -0.25999986710E+03  0.40126635029E+03  0.00000000000E+00 0.  1.
          1    1    3    3  501    0  0.56014344363E+02 -0.30046152098E+03 -0.63447767610E+03  0.70425609961E+03  0.00000000000E+00 0.  1.
         21    1    1    2  502  501  0.14995097896E-04 -0.31512816793E-04  0.84885535419E-04  0.91779435096E-04  0.00000000000E+00 0. -1.
<mgrwt>
<rscale>  1 0.64968439E+03</rscale>
<asrwt>0</asrwt>
<pdfrwt beam="1">  1        1 0.38371914E+00 0.64968439E+03</pdfrwt>
<pdfrwt beam="2">0</pdfrwt>
<totfact> 0.15801606E+00</totfact>
</mgrwt>
</event>
<event>
 6    1  0.2603926E-003  0.6439824E+03  0.7818608E-02  0.9818137E-01
          1   -1    0    0  502    0  0.00000000000E+00  0.00000000000E+00  0.14879491801E+03  0.14879491801E+03  0.00000000000E+00 0.  1.
         13   -1    0    0    0    0 -0.00000000000E+00 -0.00000000000E+00 -0.10000000000E+04  0.10000000000E+04  0.00000000000E+00 0.  1.
    9000005    2    1    2  501    0 -0.36694324465E+00  0.57197229483E+00 -0.89631883610E+03  0.11036760460E+04  0.64398206250E+03 0.  0.
         13    1    3    3    0    0 -0.19878111244E+03  0.59281458861E+02 -0.87082973774E+03  0.89519419913E+03  0.00000000000E+00 0.  1.
          3    1    3    3  501    0  0.19841416919E+03 -0.58709486566E+02 -0.25489098363E+02  0.20848184689E+03  0.00000000000E+00 0.  1.
         21    1    1    2  502  501  0.36694324465E+00 -0.57197229483E+00  0.45113754111E+02  0.45118871990E+02  0.00000000000E+00 0. -1.
<mgrwt>
<rscale>  1 0.64398242E+03</rscale>
<asrwt>0</asrwt>
<pdfrwt beam="1">  1        1 0.54107357E+00 0.64398242E+03</pdfrwt>
<pdfrwt beam="2">0</pdfrwt>
<totfact> 0.29091975E-01</totfact>
</mgrwt>
</event>
<event>
 6    1  0.2603926E-003  0.6606917E+03  0.7818608E-02  0.9786921E-01
          1   -1    0    0  502    0  0.00000000000E+00  0.00000000000E+00  0.10917987600E+03  0.10917987600E+03  0.00000000000E+00 0.  1.
         13   -1    0    0    0    0 -0.00000000000E+00 -0.00000000000E+00 -0.10000000000E+04  0.10000000000E+04  0.00000000000E+00 0.  1.
    9000005    2    1    2  501    0 -0.66028018811E-01 -0.12917177627E-03 -0.89084698440E+03  0.11091085935E+04  0.66069169676E+03 0.  0.
         13    1    3    3    0    0 -0.32122812185E+03 -0.29908567414E+02 -0.32596486477E+03  0.45862307153E+03  0.00000000000E+00 0.  1.
          1    1    3    3  501    0  0.32116209383E+03  0.29908438242E+02 -0.56488211963E+03  0.65048552196E+03  0.00000000000E+00 0.  1.
         21    1    1    2  502  501  0.66028018811E-01  0.12917177627E-03  0.26860401855E-01  0.71282516378E-01  0.00000000000E+00 0. -1.
<mgrwt>
<rscale>  1 0.66069170E+03</rscale>
<asrwt>0</asrwt>
<pdfrwt beam="1">  1        1 0.39701857E+00 0.66069170E+03</pdfrwt>
<pdfrwt beam="2">0</pdfrwt>
<totfact> 0.13766416E+00</totfact>
</mgrwt>
</event>
<event>
 6    1  0.2603926E-003  0.6948295E+03  0.7818608E-02  0.9726115E-01
          1   -1    0    0  502    0  0.00000000000E+00  0.00000000000E+00  0.14839701198E+03  0.14839701198E+03  0.00000000000E+00 0.  1.
         13   -1    0    0    0    0 -0.00000000000E+00 -0.00000000000E+00 -0.10000000000E+04  0.10000000000E+04  0.00000000000E+00 0.  1.
    9000005    2    1    2  501    0 -0.57109247905E+01 -0.78580476237E+01 -0.87834487479E+03  0.11199454376E+04  0.69476161426E+03 0.  0.
         13    1    3    3    0    0 -0.20024297084E+02  0.31275552911E+02  0.11750009287E+03  0.12322907331E+03  0.00000000000E+00 0.  1.
          1    1    3    3  501    0  0.14313372293E+02 -0.39133600535E+02 -0.99584496766E+03  0.99671636433E+03  0.00000000000E+00 0.  1.
         21    1    1    2  502  501  0.57109247905E+01  0.78580476237E+01  0.26741886768E+02  0.28451574338E+02  0.00000000000E+00 0.  1.
<mgrwt>
<rscale>  1 0.69482952E+03</rscale>
<asrwt>0</asrwt>
<pdfrwt beam="1">  1        1 0.53962664E+00 0.69482952E+03</pdfrwt>
<pdfrwt beam="2">0</pdfrwt>
<totfact> 0.29230219E-01</totfact>
</mgrwt>
</event>
<event>
 6    1  0.2603926E-003  0.6472531E+03  0.7818608E-02  0.9811947E-01
          1   -1    0    0  502    0  0.00000000000E+00  0.00000000000E+00  0.10473519451E+03  0.10473519451E+03  0.00000000000E+00 0.  1.
         13   -1    0    0    0    0 -0.00000000000E+00 -0.00000000000E+00 -0.10000000000E+04  0.10000000000E+04  0.00000000000E+00 0.  1.
    9000005    2    1    2  501    0 -0.47173920450E-05 -0.88304494795E-04 -0.89526584912E+03  0.11047341471E+04  0.64725311530E+03 0.  0.
         13    1    3    3    0    0 -0.14163732631E+03  0.27983680170E+03 -0.58379643226E+03  0.66271263917E+03  0.00000000000E+00 0.  1.
          3    1    3    3  501    0  0.14163732159E+03 -0.27983689000E+03 -0.31146941686E+03  0.44202150797E+03  0.00000000000E+00 0.  1.
         21    1    1    2  502  501  0.47173920467E-05  0.88304494792E-04  0.10436295741E-02  0.10473693835E-02  0.00000000000E+00 0.  1.
<mgrwt>
<rscale>  1 0.64725312E+03</rscale>
<asrwt>0</asrwt>
<pdfrwt beam="1">  1        1 0.38085606E+00 0.64725312E+03</pdfrwt>
<pdfrwt beam="2">0</pdfrwt>
<totfact> 0.16275809E+00</totfact>
</mgrwt>
</event>
<event>
 6    1  0.2603926E-003  0.6587727E+03  0.7818608E-02  0.9790456E-01
          1   -1    0    0  502    0  0.00000000000E+00  0.00000000000E+00  0.10896057806E+03  0.10896057806E+03  0.00000000000E+00 0.  1.
         13   -1    0    0    0    0 -0.00000000000E+00 -0.00000000000E+00 -0.10000000000E+04  0.10000000000E+04  0.00000000000E+00 0.  1.
    9000005    2    1    2  501    0  0.44643061831E-02  0.12415826751E-01 -0.89150453169E+03  0.11084952812E+04  0.65877269087E+03 0.  0.
         13    1    3    3    0    0 -0.22555798267E+03  0.23729396709E+03 -0.38479645169E+03  0.50522583029E+03  0.00000000000E+00 0.  1.
          1    1    3    3  501    0  0.22556244698E+03 -0.23728155126E+03 -0.50670808000E+03  0.60326945091E+03  0.00000000000E+00 0.  1.
         21    1    1    2  502  501 -0.44643061831E-02 -0.12415826751E-01  0.46510975678E+00  0.46529686076E+00  0.00000000000E+00 0. -1.
<mgrwt>
<rscale>  1 0.65877269E+03</rscale>
<asrwt>0</asrwt>
<pdfrwt beam="1">  1        1 0.39622112E+00 0.65877269E+03</pdfrwt>
<pdfrwt beam="2">0</pdfrwt>
<totfact> 0.13884353E+00</totfact>
</mgrwt>
</event>
<event>
 6    1  0.2603926E-003  0.6438334E+03  0.7818608E-02  0.9818420E-01
          1   -1    0    0  502    0  0.00000000000E+00  0.00000000000E+00  0.10363054656E+03  0.10363054656E+03  0.00000000000E+00 0.  1.
         13   -1    0    0    0    0 -0.00000000000E+00 -0.00000000000E+00 -0.10000000000E+04  0.10000000000E+04  0.00000000000E+00 0.  1.
    9000005    2    1    2  501    0  0.43847392874E-04  0.16722530918E-03 -0.89636960522E+03  0.11036303165E+04  0.64383336848E+03 0.  0.
         13    1    3    3    0    0  0.22873610969E+03 -0.17841220853E+03 -0.68742585687E+03  0.74612695483E+03  0.00000000000E+00 0.  1.
          3    1    3    3  501    0 -0.22873606584E+03  0.17841237576E+03 -0.20894374834E+03  0.35750336168E+03  0.00000000000E+00 0.  1.
         21    1    1    2  502  501 -0.43847392856E-04 -0.16722530919E-03  0.15177260447E-03  0.23004743285E-03  0.00000000000E+00 0. -1.
<mgrwt>
<rscale>  1 0.64383337E+03</rscale>
<asrwt>0</asrwt>
<pdfrwt beam="1">  1        1 0.37683915E+00 0.64383337E+03</pdfrwt>
<pdfrwt beam="2">0</pdfrwt>
<totfact> 0.16964030E+00</totfact>
</mgrwt>
</event>
<event>
 6    1  0.2603926E-003  0.6448192E+03  0.7818608E-02  0.9816549E-01
          1   -1    0    0  502    0  0.00000000000E+00  0.00000000000E+00  0.10397522788E+03  0.10397522788E+03  0.00000000000E+00 0.  1.
         13   -1    0    0    0    0 -0.00000000000E+00 -0.00000000000E+00 -0.10000000000E+04  0.10000000000E+04  0.00000000000E+00 0.  1.
    9000005    2    1    2  501    0  0.20294784123E-01 -0.32901928842E-02 -0.89604769569E+03  0.11039444351E+04  0.64481923240E+03 0.  0.
         13    1    3    3    0    0  0.16149501341E+03 -0.21209646069E+03 -0.13756407440E+03  0.29998237041E+03  0.00000000000E+00 0.  1.
          3    1    3    3  501    0 -0.16147471862E+03  0.21209317050E+03 -0.75848362129E+03  0.80396206471E+03  0.00000000000E+00 0.  1.
         21    1    1    2  502  501 -0.20294784123E-01  0.32901928842E-02  0.22923566547E-01  0.30792751339E-01  0.00000000000E+00 0.  1.
<mgrwt>
<rscale>  1 0.64481923E+03</rscale>
<asrwt>0</asrwt>
<pdfrwt beam="1">  1        1 0.37809254E+00 0.64481923E+03</pdfrwt>
<pdfrwt beam="2">0</pdfrwt>
<totfact> 0.16746614E+00</totfact>
</mgrwt>
</event>
<event>
 6    1  0.2752764E-003  0.6549770E+03  0.7818608E-02  0.9797485E-01
          1   -1    0    0  502    0  0.00000000000E+00  0.00000000000E+00  0.10724871830E+03  0.10724871830E+03  0.00000000000E+00 0.  1.
         13   -1    0    0    0    0 -0.00000000000E+00 -0.00000000000E+00 -0.10000000000E+04  0.10000000000E+04  0.00000000000E+00 0.  1.
    9000005    2    1    2  501    0 -0.59821809373E-05  0.44081127157E-05 -0.89275128224E+03  0.11072487108E+04  0.65497698869E+03 0.  0.
         13    1    3    3    0    0  0.24521392754E+03 -0.13532281987E+03 -0.73329837155E+03  0.78496409953E+03  0.00000000000E+00 0.  1.
          3    1    3    3  501    0 -0.24521393352E+03  0.13532282427E+03 -0.15945291069E+03  0.32228461131E+03  0.00000000000E+00 0.  1.
         21    1    1    2  502  501  0.59821809633E-05 -0.44081127217E-05  0.54036270223E-06  0.74504992246E-05  0.00000000000E+00 0. -1.
<mgrwt>
<rscale>  1 0.65497699E+03</rscale>
<asrwt>0</asrwt>
<pdfrwt beam="1">  1        1 0.38999616E+00 0.65497699E+03</pdfrwt>
<pdfrwt beam="2">0</pdfrwt>
<totfact> 0.14807596E+00</totfact>
</mgrwt>
</event>
<event>
 6    1  0.2603926E-003  0.6519816E+03  0.7818608E-02  0.9803068E-01
          1   -1    0    0  502    0  0.00000000000E+00  0.00000000000E+00  0.10627289716E+03  0.10627289716E+03  0.00000000000E+00 0.  1.
         13   -1    0    0    0    0 -0.00000000000E+00 -0.00000000000E+00 -0.10000000000E+04  0.10000000000E+04  0.00000000000E+00 0.  1.
    9000005    2    1    2  501    0  0.93879813278E-04  0.84394265059E-04 -0.89373000765E+03  0.11062699896E+04  0.65198156673E+03 0.  0.
         13    1    3    3    0    0 -0.27521482922E+03  0.13494234430E+03 -0.63517968155E+03  0.70527006626E+03  0.00000000000E+00 0.  1.
          3    1    3    3  501    0  0.27521492310E+03 -0.13494225991E+03 -0.25855032610E+03  0.40099992336E+03  0.00000000000E+00 0.  1.
         21    1    1    2  502  501 -0.93879813288E-04 -0.84394265052E-04  0.29048080722E-02  0.29075497842E-02  0.00000000000E+00 0.  1.
<mgrwt>
<rscale>  1 0.65198157E+03</rscale>
<asrwt>0</asrwt>
<pdfrwt beam="1">  1        1 0.38644771E+00 0.65198157E+03</pdfrwt>
<pdfrwt beam="2">0</pdfrwt>
<totfact> 0.15361984E+00</totfact>
</mgrwt>
</event>
<event>
 6    1  0.2603926E-003  0.6577353E+03  0.7818608E-02  0.9792372E-01
          1   -1    0    0  502    0  0.00000000000E+00  0.00000000000E+00  0.11635474796E+03  0.11635474796E+03  0.00000000000E+00 0.  1.
         13   -1    0    0    0    0 -0.00000000000E+00 -0.00000000000E+00 -0.10000000000E+04  0.10000000000E+04  0.00000000000E+00 0.  1.
    9000005    2    1    2  501    0 -0.10345842109E+01  0.71678350116E+00 -0.89179250793E+03  0.11081108459E+04  0.65773412971E+03 0.  0.
         13    1    3    3    0    0 -0.96701080428E+02  0.24348152156E+03 -0.11038397211E+03  0.28428677703E+03  0.00000000000E+00 0.  1.
          3    1    3    3  501    0  0.95666496217E+02 -0.24276473806E+03 -0.78140853582E+03  0.82382406884E+03  0.00000000000E+00 0.  1.
         21    1    1    2  502  501  0.10345842109E+01 -0.71678350116E+00  0.81472558890E+01  0.82439020857E+01  0.00000000000E+00 0.  1.
<mgrwt>
<rscale>  1 0.65773533E+03</rscale>
<asrwt>0</asrwt>
<pdfrwt beam="1">  1        1 0.42310907E+00 0.65773533E+03</pdfrwt>
<pdfrwt beam="2">0</pdfrwt>
<totfact> 0.10520979E+00</totfact>
</mgrwt>
</event>
<event>
 6    1  0.2603926E-003  0.6575155E+03  0.7818608E-02  0.9792778E-01
          1   -1    0    0  502    0  0.00000000000E+00  0.00000000000E+00  0.10808458311E+03  0.10808458311E+03  0.00000000000E+00 0.  1.
         13   -1    0    0    0    0 -0.00000000000E+00 -0.00000000000E+00 -0.10000000000E+04  0.10000000000E+04  0.00000000000E+00 0.  1.
    9000005    2    1    2  501    0 -0.51318292412E-03  0.24071434158E-03 -0.89191832041E+03  0.11080816248E+04  0.65751547273E+03 0.  0.
         13    1    3    3    0    0  0.25786700466E+03 -0.48821789307E+01 -0.78952909398E+03  0.83058739335E+03  0.00000000000E+00 0.  1.
          1    1    3    3  501    0 -0.25786751785E+03  0.48824196451E+01 -0.10238922644E+03  0.27749423142E+03  0.00000000000E+00 0.  1.
         21    1    1    2  502  501  0.51318292414E-03 -0.24071434158E-03  0.29035249947E-02  0.29583369489E-02  0.00000000000E+00 0.  1.
<mgrwt>
<rscale>  1 0.65751547E+03</rscale>
<asrwt>0</asrwt>
<pdfrwt beam="1">  1        1 0.39303568E+00 0.65751547E+03</pdfrwt>
<pdfrwt beam="2">0</pdfrwt>
<totfact> 0.14347931E+00</totfact>
</mgrwt>
</event>
<event>
 6    1  0.2603926E-003  0.6497306E+03  0.7818608E-02  0.9807285E-01
          1   -1    0    0  502    0  0.00000000000E+00  0.00000000000E+00  0.10553752788E+03  0.10553752788E+03  0.00000000000E+00 0.  1.
         13   -1    0    0    0    0 -0.00000000000E+00 -0.00000000000E+00 -0.10000000000E+04  0.10000000000E+04  0.00000000000E+00 0.  1.
    9000005    2    1    2  501    0  0.22246150593E-04 -0.40487416641E-04 -0.89446254249E+03  0.11055374437E+04  0.64973055918E+03 0.  0.
         13    1    3    3    0    0 -0.13577488975E+03 -0.16479906337E+03 -0.30637609758E+02  0.21571327058E+03  0.00000000000E+00 0.  1.
          3    1    3    3  501    0  0.13577491200E+03  0.16479902288E+03 -0.86382493273E+03  0.88982417312E+03  0.00000000000E+00 0.  1.
         21    1    1    2  502  501 -0.22246150571E-04  0.40487416643E-04  0.70367481409E-04  0.84176627169E-04  0.00000000000E+00 0. -1.
<mgrwt>
<rscale>  1 0.64973056E+03</rscale>
<asrwt>0</asrwt>
<pdfrwt beam="1">  1        1 0.38377364E+00 0.64973056E+03</pdfrwt>
<pdfrwt beam="2">0</pdfrwt>
<totfact> 0.15792709E+00</totfact>
</mgrwt>
</event>
<event>
 6    1  0.2603926E-003  0.6385084E+03  0.7818608E-02  0.9828584E-01
          1   -1    0    0  502    0  0.00000000000E+00  0.00000000000E+00  0.10274831494E+03  0.10274831494E+03  0.00000000000E+00 0.  1.
         13   -1    0    0    0    0 -0.00000000000E+00 -0.00000000000E+00 -0.10000000000E+04  0.10000000000E+04  0.00000000000E+00 0.  1.
    9000005    2    1    2  501    0 -0.16182602479E+01  0.22520319382E+00 -0.89707210685E+03  0.11011046206E+04  0.63850634388E+03 0.  0.
         13    1    3    3    0    0  0.27262826673E+03  0.47337374111E+02 -0.71984232251E+03  0.77119385895E+03  0.00000000000E+00 0.  1.
          1    1    3    3  501    0 -0.27424652697E+03 -0.47112170918E+02 -0.17722978434E+03  0.32991076167E+03  0.00000000000E+00 0.  1.
         21    1    1    2  502  501  0.16182602479E+01 -0.22520319382E+00 -0.17957820884E+00  0.16436943273E+01  0.00000000000E+00 0. -1.
<mgrwt>
<rscale>  1 0.63850843E+03</rscale>
<asrwt>0</asrwt>
<pdfrwt beam="1">  1        1 0.37363102E+00 0.63850843E+03</pdfrwt>
<pdfrwt beam="2">0</pdfrwt>
<totfact> 0.17541849E+00</totfact>
</mgrwt>
</event>
<event>
 6    1  0.2603926E-003  0.6468903E+03  0.7818608E-02  0.9812632E-01
          1   -1    0    0  502    0  0.00000000000E+00  0.00000000000E+00  0.12025258059E+03  0.12025258059E+03  0.00000000000E+00 0.  1.
         13   -1    0    0    0    0 -0.00000000000E+00 -0.00000000000E+00 -0.10000000000E+04  0.10000000000E+04  0.00000000000E+00 0.  1.
    9000005    2    1    2  501    0  0.19723654316E+01 -0.24945214339E+01 -0.89520444073E+03  0.11044718211E+04  0.64688244681E+03 0.  0.
         13    1    3    3    0    0 -0.19470776036E+03 -0.17568456409E+02 -0.88566403716E+03  0.90698431591E+03  0.00000000000E+00 0.  1.
          1    1    3    3  501    0  0.19668012579E+03  0.15073934975E+02 -0.95404035769E+01  0.19748750516E+03  0.00000000000E+00 0.  1.
         21    1    1    2  502  501 -0.19723654316E+01  0.24945214339E+01  0.15457021322E+02  0.15780759510E+02  0.00000000000E+00 0.  1.
<mgrwt>
<rscale>  1 0.64689026E+03</rscale>
<asrwt>0</asrwt>
<pdfrwt beam="1">  1        1 0.43728303E+00 0.64689026E+03</pdfrwt>
<pdfrwt beam="2">0</pdfrwt>
<totfact> 0.90916607E-01</totfact>
</mgrwt>
</event>
<event>
 6    1  0.2603926E-003  0.7261485E+03  0.7818608E-02  0.9673531E-01
          1   -1    0    0  502    0  0.00000000000E+00  0.00000000000E+00  0.13187443301E+03  0.13187443301E+03  0.00000000000E+00 0.  1.
         13   -1    0    0    0    0 -0.00000000000E+00 -0.00000000000E+00 -0.10000000000E+04  0.10000000000E+04  0.00000000000E+00 0.  1.
    9000005    2    1    2  501    0  0.44406593265E-02  0.29934809936E-02 -0.86817694152E+03  0.11318227801E+04  0.72614847226E+03 0.  0.
         13    1    3    3    0    0  0.28823269484E+03 -0.17545087518E+03 -0.64298907602E+03  0.72615153229E+03  0.00000000000E+00 0.  1.
          3    1    3    3  501    0 -0.28822825418E+03  0.17545386867E+03 -0.22518786550E+03  0.40567124781E+03  0.00000000000E+00 0.  1.
         21    1    1    2  502  501 -0.44406593265E-02 -0.29934809936E-02  0.51374530276E-01  0.51652906450E-01  0.00000000000E+00 0. -1.
<mgrwt>
<rscale>  1 0.72614847E+03</rscale>
<asrwt>0</asrwt>
<pdfrwt beam="1">  1        1 0.47954440E+00 0.72614847E+03</pdfrwt>
<pdfrwt beam="2">0</pdfrwt>
<totfact> 0.56953275E-01</totfact>
</mgrwt>
</event>
<event>
 6    1  0.2603926E-003  0.6432761E+03  0.7818608E-02  0.9819479E-01
          1   -1    0    0  502    0  0.00000000000E+00  0.00000000000E+00  0.13272145889E+03  0.13272145889E+03  0.00000000000E+00 0.  1.
         13   -1    0    0    0    0 -0.00000000000E+00 -0.00000000000E+00 -0.10000000000E+04  0.10000000000E+04  0.00000000000E+00 0.  1.
    9000005    2    1    2  501    0  0.38261066698E+02 -0.26063332248E+02 -0.87476431290E+03  0.10858253685E+04  0.64160807451E+03 0.  0.
         13    1    3    3    0    0 -0.61694445234E+02  0.16069964964E+03  0.13488960006E+02  0.17266306498E+03  0.00000000000E+00 0.  1.
          1    1    3    3  501    0  0.99955511932E+02 -0.18676298188E+03 -0.88825327291E+03  0.91316230354E+03  0.00000000000E+00 0.  1.
         21    1    1    2  502  501 -0.38261066698E+02  0.26063332248E+02  0.74857717907E+01  0.46896090371E+02  0.00000000000E+00 0.  1.
<mgrwt>
<rscale>  1 0.64327609E+03</rscale>
<asrwt>0</asrwt>
<pdfrwt beam="1">  1        1 0.48262450E+00 0.64327609E+03</pdfrwt>
<pdfrwt beam="2">0</pdfrwt>
<totfact> 0.56040992E-01</totfact>
</mgrwt>
</event>
<event>
 6    1  0.2603926E-003  0.6520721E+03  0.7818608E-02  0.9802899E-01
          1   -1    0    0  502    0  0.00000000000E+00  0.00000000000E+00  0.10629963418E+03  0.10629963418E+03  0.00000000000E+00 0.  1.
         13   -1    0    0    0    0 -0.00000000000E+00 -0.00000000000E+00 -0.10000000000E+04  0.10000000000E+04  0.00000000000E+00 0.  1.
    9000005    2    1    2  501    0 -0.24786037454E-03 -0.13205014423E-03 -0.89370025610E+03  0.11062993327E+04  0.65207213229E+03 0.  0.
         13    1    3    3    0    0 -0.16019817925E+03  0.13689835308E+03 -0.24760699883E+02  0.21217376833E+03  0.00000000000E+00 0.  1.
          1    1    3    3  501    0  0.16019793139E+03 -0.13689848513E+03 -0.86893955621E+03  0.89412556434E+03  0.00000000000E+00 0.  1.
         21    1    1    2  502  501  0.24786037454E-03  0.13205014422E-03 -0.10971968399E-03  0.30151354018E-03  0.00000000000E+00 0. -1.
<mgrwt>
<rscale>  1 0.65207213E+03</rscale>
<asrwt>0</asrwt>
<pdfrwt beam="1">  1        1 0.38654494E+00 0.65207213E+03</pdfrwt>
<pdfrwt beam="2">0</pdfrwt>
<totfact> 0.15346511E+00</totfact>
</mgrwt>
</event>
<event>
 6    1  0.2603926E-003  0.6492718E+03  0.7818608E-02  0.9808147E-01
          1   -1    0    0  502    0  0.00000000000E+00  0.00000000000E+00  0.10539278946E+03  0.10539278946E+03  0.00000000000E+00 0.  1.
         13   -1    0    0    0    0 -0.00000000000E+00 -0.00000000000E+00 -0.10000000000E+04  0.10000000000E+04  0.00000000000E+00 0.  1.
    9000005    2    1    2  501    0  0.15667934543E-02 -0.12871732431E-02 -0.89461128491E+03  0.11053882384E+04  0.64927175090E+03 0.  0.
         13    1    3    3    0    0 -0.29682742176E+03 -0.10733862607E+03 -0.31809363418E+03  0.44812013909E+03  0.00000000000E+00 0.  1.
          3    1    3    3  501    0  0.29682898856E+03  0.10733733889E+03 -0.57651765073E+03  0.65726809931E+03  0.00000000000E+00 0.  1.
         21    1    1    2  502  501 -0.15667934543E-02  0.12871732431E-02  0.40743643864E-02  0.45510550249E-02  0.00000000000E+00 0. -1.
<mgrwt>
<rscale>  1 0.64927175E+03</rscale>
<asrwt>0</asrwt>
<pdfrwt beam="1">  1        1 0.38324732E+00 0.64927175E+03</pdfrwt>
<pdfrwt beam="2">0</pdfrwt>
<totfact> 0.15878873E+00</totfact>
</mgrwt>
</event>
<event>
 6    1  0.2603926E-003  0.6442961E+03  0.7818608E-02  0.9817541E-01
          1   -1    0    0  502    0  0.00000000000E+00  0.00000000000E+00  0.10380950435E+03  0.10380950435E+03  0.00000000000E+00 0.  1.
         13   -1    0    0    0    0 -0.00000000000E+00 -0.00000000000E+00 -0.10000000000E+04  0.10000000000E+04  0.00000000000E+00 0.  1.
    9000005    2    1    2  501    0  0.14428621361E-03 -0.18457641043E-02 -0.89622058981E+03  0.11037793533E+04  0.64429613934E+03 0.  0.
         13    1    3    3    0    0  0.19132063002E+03  0.69291769776E+02 -0.87596815888E+03  0.89929147010E+03  0.00000000000E+00 0.  1.
          3    1    3    3  501    0 -0.19132048573E+03 -0.69293615540E+02 -0.20252430932E+02  0.20448788320E+03  0.00000000000E+00 0.  1.
         21    1    1    2  502  501 -0.14428621362E-03  0.18457641043E-02  0.30094160216E-01  0.30151055417E-01  0.00000000000E+00 0. -1.
<mgrwt>
<rscale>  1 0.64429614E+03</rscale>
<asrwt>0</asrwt>
<pdfrwt beam="1">  1        1 0.37748990E+00 0.64429614E+03</pdfrwt>
<pdfrwt beam="2">0</pdfrwt>
<totfact> 0.16850966E+00</totfact>
</mgrwt>
</event>
<event>
 6    1  0.2603926E-003  0.6774644E+03  0.7818608E-02  0.9756567E-01
          1   -1    0    0  502    0  0.00000000000E+00  0.00000000000E+00  0.11477250928E+03  0.11477250928E+03  0.00000000000E+00 0.  1.
         13   -1    0    0    0    0 -0.00000000000E+00 -0.00000000000E+00 -0.10000000000E+04  0.10000000000E+04  0.00000000000E+00 0.  1.
    9000005    2    1    2  501    0 -0.12041795573E-01 -0.16733079001E-01 -0.88525687581E+03  0.11147366138E+04  0.67746437661E+03 0.  0.
         13    1    3    3    0    0  0.45680237816E+01 -0.27705724944E+03 -0.12203754691E+03  0.30277838292E+03  0.00000000000E+00 0.  1.
          3    1    3    3  501    0 -0.45800655771E+01  0.27704051636E+03 -0.76321932890E+03  0.81195823089E+03  0.00000000000E+00 0.  1.
         21    1    1    2  502  501  0.12041795573E-01  0.16733079001E-01  0.29385087136E-01  0.35895460987E-01  0.00000000000E+00 0. -1.
<mgrwt>
<rscale>  1 0.67746438E+03</rscale>
<asrwt>0</asrwt>
<pdfrwt beam="1">  1        1 0.41735546E+00 0.67746438E+03</pdfrwt>
<pdfrwt beam="2">0</pdfrwt>
<totfact> 0.11126772E+00</totfact>
</mgrwt>
</event>
<event>
 6    1  0.2603926E-003  0.6467695E+03  0.7818608E-02  0.9812860E-01
          1   -1    0    0  502    0  0.00000000000E+00  0.00000000000E+00  0.10458205521E+03  0.10458205521E+03  0.00000000000E+00 0.  1.
         13   -1    0    0    0    0 -0.00000000000E+00 -0.00000000000E+00 -0.10000000000E+04  0.10000000000E+04  0.00000000000E+00 0.  1.
    9000005    2    1    2  501    0  0.26004055574E-02 -0.12144947628E-02 -0.89542177409E+03  0.11045772697E+04  0.64676950402E+03 0.  0.
         13    1    3    3    0    0 -0.31798740948E+03  0.28517583325E+02 -0.53558539662E+03  0.62352302461E+03  0.00000000000E+00 0.  1.
          1    1    3    3  501    0  0.31799000989E+03 -0.28518797820E+02 -0.35983637747E+03  0.48105424514E+03  0.00000000000E+00 0.  1.
         21    1    1    2  502  501 -0.26004055573E-02  0.12144947628E-02  0.38292924320E-02  0.47854557904E-02  0.00000000000E+00 0.  1.
<mgrwt>
<rscale>  1 0.64676950E+03</rscale>
<asrwt>0</asrwt>
<pdfrwt beam="1">  1        1 0.38029918E+00 0.64676950E+03</pdfrwt>
<pdfrwt beam="2">0</pdfrwt>
<totfact> 0.16369634E+00</totfact>
</mgrwt>
</event>
<event>
 6    1  0.2603926E-003  0.5509670E+03  0.7818608E-02  0.1001270E+00
          1   -1    0    0  502    0  0.00000000000E+00  0.00000000000E+00  0.75907173970E+02  0.75907173970E+02  0.00000000000E+00 0.  1.
         13   -1    0    0    0    0 -0.00000000000E+00 -0.00000000000E+00 -0.10000000000E+04  0.10000000000E+04  0.00000000000E+00 0.  1.
    9000005    2    1    2  501    0 -0.48291023160E-01 -0.23541766376E-01 -0.92403869614E+03  0.10758309094E+04  0.55096699611E+03 0.  0.
         13    1    3    3    0    0 -0.23652475218E+02 -0.67194478118E+02  0.57602559601E+02  0.91611092921E+02  0.00000000000E+00 0.  1.
          1    1    3    3  501    0  0.23604184195E+02  0.67170936352E+02 -0.98164125574E+03  0.98421981649E+03  0.00000000000E+00 0.  1.
         21    1    1    2  502  501  0.48291023160E-01  0.23541766376E-01 -0.54129888344E-01  0.76264555949E-01  0.00000000000E+00 0. -1.
<mgrwt>
<rscale>  1 0.55096700E+03</rscale>
<asrwt>0</asrwt>
<pdfrwt beam="1">  1        1 0.27602667E+00 0.55096700E+03</pdfrwt>
<pdfrwt beam="2">0</pdfrwt>
<totfact> 0.47226875E+00</totfact>
</mgrwt>
</event>
<event>
 6    1  0.2603926E-003  0.6216848E+03  0.7818608E-02  0.9861411E-01
          1   -1    0    0  502    0  0.00000000000E+00  0.00000000000E+00  0.10958714285E+03  0.10958714285E+03  0.00000000000E+00 0.  1.
         13   -1    0    0    0    0 -0.00000000000E+00 -0.00000000000E+00 -0.10000000000E+04  0.10000000000E+04  0.00000000000E+00 0.  1.
    9000005    2    1    2  501    0 -0.74426456136E+00 -0.14248713853E+00 -0.90336486414E+03  0.10966129871E+04  0.62168431820E+03 0.  0.
         13    1    3    3    0    0 -0.20414177221E+03 -0.69444484146E+02 -0.84762351081E+03  0.87462106973E+03  0.00000000000E+00 0.  1.
          3    1    3    3  501    0  0.20339750765E+03  0.69301997008E+02 -0.55741353326E+02  0.22199191737E+03  0.00000000000E+00 0.  1.
         21    1    1    2  502  501  0.74426456136E+00  0.14248713853E+00  0.12952006989E+02  0.12974155748E+02  0.00000000000E+00 0. -1.
<mgrwt>
<rscale>  1 0.62168478E+03</rscale>
<asrwt>0</asrwt>
<pdfrwt beam="1">  1        1 0.39849954E+00 0.62168478E+03</pdfrwt>
<pdfrwt beam="2">0</pdfrwt>
<totfact> 0.13660902E+00</totfact>
</mgrwt>
</event>
<event>
 6    1  0.2603926E-003  0.6455966E+03  0.7818608E-02  0.9815077E-01
          1   -1    0    0  502    0  0.00000000000E+00  0.00000000000E+00  0.10436252372E+03  0.10436252372E+03  0.00000000000E+00 0.  1.
         13   -1    0    0    0    0 -0.00000000000E+00 -0.00000000000E+00 -0.10000000000E+04  0.10000000000E+04  0.00000000000E+00 0.  1.
    9000005    2    1    2  501    0  0.78019556498E-02 -0.61030561774E-02 -0.89580110699E+03  0.11041985935E+04  0.64559655391E+03 0.  0.
         13    1    3    3    0    0 -0.67867735420E+02 -0.19928498895E+03 -0.86642838621E+03  0.89163820284E+03  0.00000000000E+00 0.  1.
          1    1    3    3  501    0  0.67875537376E+02  0.19927888590E+03 -0.29372720788E+02  0.21256039063E+03  0.00000000000E+00 0.  1.
         21    1    1    2  502  501 -0.78019556498E-02  0.61030561774E-02  0.16363071549E+00  0.16393025608E+00  0.00000000000E+00 0.  1.
<mgrwt>
<rscale>  1 0.64559655E+03</rscale>
<asrwt>0</asrwt>
<pdfrwt beam="1">  1        1 0.37950089E+00 0.64559655E+03</pdfrwt>
<pdfrwt beam="2">0</pdfrwt>
<totfact> 0.16506488E+00</totfact>
</mgrwt>
</event>
<event>
 6    1  0.2603926E-003  0.6706119E+03  0.7818608E-02  0.9768853E-01
          1   -1    0    0  502    0  0.00000000000E+00  0.00000000000E+00  0.11259078343E+03  0.11259078343E+03  0.00000000000E+00 0.  1.
         13   -1    0    0    0    0 -0.00000000000E+00 -0.00000000000E+00 -0.10000000000E+04  0.10000000000E+04  0.00000000000E+00 0.  1.
    9000005    2    1    2  501    0 -0.30315255088E-04 -0.42438352571E-02 -0.88756988865E+03  0.11124300553E+04  0.67061190020E+03 0.  0.
         13    1    3    3    0    0 -0.16831566384E+03 -0.27787402500E+03 -0.58145133025E+03  0.66605539253E+03  0.00000000000E+00 0.  1.
          1    1    3    3  501    0  0.16831563352E+03  0.27786978117E+03 -0.30611855840E+03  0.44637466278E+03  0.00000000000E+00 0.  1.
         21    1    1    2  502  501  0.30315255087E-04  0.42438352571E-02  0.16067207860E+00  0.16072811795E+00  0.00000000000E+00 0.  1.
<mgrwt>
<rscale>  1 0.67061190E+03</rscale>
<asrwt>0</asrwt>
<pdfrwt beam="1">  1        1 0.40942189E+00 0.67061190E+03</pdfrwt>
<pdfrwt beam="2">0</pdfrwt>
<totfact> 0.12094762E+00</totfact>
</mgrwt>
</event>
<event>
 6    1  0.2603926E-003  0.6531154E+03  0.7818608E-02  0.9800951E-01
          1   -1    0    0  502    0  0.00000000000E+00  0.00000000000E+00  0.10664000162E+03  0.10664000162E+03  0.00000000000E+00 0.  1.
         13   -1    0    0    0    0 -0.00000000000E+00 -0.00000000000E+00 -0.10000000000E+04  0.10000000000E+04  0.00000000000E+00 0.  1.
    9000005    2    1    2  501    0  0.17779887865E-04  0.12968521270E-04 -0.89336005754E+03  0.11066399385E+04  0.65311542708E+03 0.  0.
         13    1    3    3    0    0  0.51189403317E+01  0.48995070439E+01  0.10650966687E+03  0.10674510694E+03  0.00000000000E+00 0.  1.
          1    1    3    3  501    0 -0.51189225518E+01 -0.48994940754E+01 -0.99986972440E+03  0.99989483156E+03  0.00000000000E+00 0.  1.
         21    1    1    2  502  501 -0.17779887865E-04 -0.12968521271E-04  0.59151823172E-04  0.63112955413E-04  0.00000000000E+00 0.  1.
<mgrwt>
<rscale>  1 0.65311543E+03</rscale>
<asrwt>0</asrwt>
<pdfrwt beam="1">  1        1 0.38778264E+00 0.65311543E+03</pdfrwt>
<pdfrwt beam="2">0</pdfrwt>
<totfact> 0.15151131E+00</totfact>
</mgrwt>
</event>
<event>
 6    1  0.2603926E-003  0.6632674E+03  0.7818608E-02  0.9782197E-01
          1   -1    0    0  502    0  0.00000000000E+00  0.00000000000E+00  0.11024888782E+03  0.11024888782E+03  0.00000000000E+00 0.  1.
         13   -1    0    0    0    0 -0.00000000000E+00 -0.00000000000E+00 -0.10000000000E+04  0.10000000000E+04  0.00000000000E+00 0.  1.
    9000005    2    1    2  501    0  0.21353354430E-01  0.89442671901E-02 -0.89001851879E+03  0.11099804809E+04  0.66326744510E+03 0.  0.
         13    1    3    3    0    0  0.15234407879E+03 -0.29270656881E+03 -0.38961512001E+03  0.51057398632E+03  0.00000000000E+00 0.  1.
          3    1    3    3  501    0 -0.15232272543E+03  0.29271551308E+03 -0.50040339878E+03  0.59940649461E+03  0.00000000000E+00 0.  1.
         21    1    1    2  502  501 -0.21353354430E-01 -0.89442671901E-02  0.26740660691E+00  0.26840689089E+00  0.00000000000E+00 0.  1.
<mgrwt>
<rscale>  1 0.66326745E+03</rscale>
<asrwt>0</asrwt>
<pdfrwt beam="1">  1        1 0.40090589E+00 0.66326745E+03</pdfrwt>
<pdfrwt beam="2">0</pdfrwt>
<totfact> 0.13221699E+00</totfact>
</mgrwt>
</event>
<event>
 6    1  0.2603926E-003  0.6818670E+03  0.7818608E-02  0.9748755E-01
          1   -1    0    0  502    0  0.00000000000E+00  0.00000000000E+00  0.11632634712E+03  0.11632634712E+03  0.00000000000E+00 0.  1.
         13   -1    0    0    0    0 -0.00000000000E+00 -0.00000000000E+00 -0.10000000000E+04  0.10000000000E+04  0.00000000000E+00 0.  1.
    9000005    2    1    2  501    0 -0.12724828486E+00 -0.22037864971E+00 -0.88345569529E+03  0.11159912883E+04  0.68186694109E+03 0.  0.
         13    1    3    3    0    0  0.80055510402E+02  0.32500946431E+03 -0.33659833931E+03  0.47469830277E+03  0.00000000000E+00 0.  1.
          1    1    3    3  501    0 -0.80182758687E+02 -0.32522984295E+03 -0.54685735598E+03  0.64129298556E+03  0.00000000000E+00 0.  1.
         21    1    1    2  502  501  0.12724828486E+00  0.22037864971E+00 -0.21795759225E+00  0.33505878181E+00  0.00000000000E+00 0. -1.
<mgrwt>
<rscale>  1 0.68186699E+03</rscale>
<asrwt>0</asrwt>
<pdfrwt beam="1">  1        1 0.42300579E+00 0.68186699E+03</pdfrwt>
<pdfrwt beam="2">0</pdfrwt>
<totfact> 0.10483186E+00</totfact>
</mgrwt>
</event>
<event>
 6    1  0.2603926E-003  0.6604157E+03  0.7818608E-02  0.9787429E-01
          1   -1    0    0  502    0  0.00000000000E+00  0.00000000000E+00  0.10936520453E+03  0.10936520453E+03  0.00000000000E+00 0.  1.
         13   -1    0    0    0    0 -0.00000000000E+00 -0.00000000000E+00 -0.10000000000E+04  0.10000000000E+04  0.00000000000E+00 0.  1.
    9000005    2    1    2  501    0  0.45494563749E-02  0.11431798124E-01 -0.89096266243E+03  0.11090371068E+04  0.66041565566E+03 0.  0.
         13    1    3    3    0    0  0.27237122571E+03  0.48443330922E+02 -0.14271588524E+03  0.31128871615E+03  0.00000000000E+00 0.  1.
          1    1    3    3  501    0 -0.27236667625E+03 -0.48431899124E+02 -0.74824677719E+03  0.79774839064E+03  0.00000000000E+00 0.  1.
         21    1    1    2  502  501 -0.45494563749E-02 -0.11431798124E-01  0.32786696549E+00  0.32809774553E+00  0.00000000000E+00 0.  1.
<mgrwt>
<rscale>  1 0.66041566E+03</rscale>
<asrwt>0</asrwt>
<pdfrwt beam="1">  1        1 0.39769249E+00 0.66041566E+03</pdfrwt>
<pdfrwt beam="2">0</pdfrwt>
<totfact> 0.13672331E+00</totfact>
</mgrwt>
</event>
<event>
 6    1  0.2603926E-003  0.6429809E+03  0.7818608E-02  0.9820040E-01
          1   -1    0    0  502    0  0.00000000000E+00  0.00000000000E+00  0.10339062425E+03  0.10339062425E+03  0.00000000000E+00 0.  1.
         13   -1    0    0    0    0 -0.00000000000E+00 -0.00000000000E+00 -0.10000000000E+04  0.10000000000E+04  0.00000000000E+00 0.  1.
    9000005    2    1    2  501    0  0.12484630841E-02 -0.17417064781E-02 -0.89664386907E+03  0.11033560644E+04  0.64298085271E+03 0.  0.
         13    1    3    3    0    0 -0.24690382088E+02  0.84923648689E+02  0.82070802347E+02  0.12065346109E+03  0.00000000000E+00 0.  1.
          3    1    3    3  501    0  0.24691630551E+02 -0.84925390396E+02 -0.97871467142E+03  0.98270260334E+03  0.00000000000E+00 0.  1.
         21    1    1    2  502  501 -0.12484630841E-02  0.17417064781E-02  0.34493320431E-01  0.34559822856E-01  0.00000000000E+00 0.  1.
<mgrwt>
<rscale>  1 0.64298085E+03</rscale>
<asrwt>0</asrwt>
<pdfrwt beam="1">  1        1 0.37596670E+00 0.64298085E+03</pdfrwt>
<pdfrwt beam="2">0</pdfrwt>
<totfact> 0.17117474E+00</totfact>
</mgrwt>
</event>
<event>
 6    1  0.2603926E-003  0.6492000E+03  0.7818608E-02  0.9808281E-01
          1   -1    0    0  502    0  0.00000000000E+00  0.00000000000E+00  0.10538089615E+03  0.10538089615E+03  0.00000000000E+00 0.  1.
         13   -1    0    0    0    0 -0.00000000000E+00 -0.00000000000E+00 -0.10000000000E+04  0.10000000000E+04  0.00000000000E+00 0.  1.
    9000005    2    1    2  501    0 -0.12936360719E-01 -0.99646626896E-03 -0.89463181613E+03  0.11053627318E+04  0.64920003250E+03 0.  0.
         13    1    3    3    0    0  0.24478239512E+03 -0.21168380795E+03 -0.40444605020E+03  0.51798172075E+03  0.00000000000E+00 0.  1.
          1    1    3    3  501    0 -0.24479533148E+03  0.21168281148E+03 -0.49018576593E+03  0.58738101103E+03  0.00000000000E+00 0.  1.
         21    1    1    2  502  501  0.12936360719E-01  0.99646626896E-03  0.12712285102E-01  0.18164376295E-01  0.00000000000E+00 0. -1.
<mgrwt>
<rscale>  1 0.64920003E+03</rscale>
<asrwt>0</asrwt>
<pdfrwt beam="1">  1        1 0.38320407E+00 0.64920003E+03</pdfrwt>
<pdfrwt beam="2">0</pdfrwt>
<totfact> 0.15886072E+00</totfact>
</mgrwt>
</event>
<event>
 6    1  0.2603926E-003  0.6480770E+03  0.7818608E-02  0.9810394E-01
          1   -1    0    0  502    0  0.00000000000E+00  0.00000000000E+00  0.10500099908E+03  0.10500099908E+03  0.00000000000E+00 0.  1.
         13   -1    0    0    0    0 -0.00000000000E+00 -0.00000000000E+00 -0.10000000000E+04  0.10000000000E+04  0.00000000000E+00 0.  1.
    9000005    2    1    2  501    0  0.90650951563E-05  0.72502286343E-05 -0.89499903630E+03  0.11050009618E+04  0.64807704071E+03 0.  0.
         13    1    3    3    0    0 -0.13985553056E+03 -0.28578120212E+03 -0.34280228593E+03  0.46770062235E+03  0.00000000000E+00 0.  1.
          1    1    3    3  501    0  0.13985553962E+03  0.28578120937E+03 -0.55219675037E+03  0.63730033949E+03  0.00000000000E+00 0.  1.
         21    1    1    2  502  501 -0.90650951622E-05 -0.72502286278E-05  0.35382555931E-04  0.37237978324E-04  0.00000000000E+00 0. -1.
<mgrwt>
<rscale>  1 0.64807704E+03</rscale>
<asrwt>0</asrwt>
<pdfrwt beam="1">  1        1 0.38182262E+00 0.64807704E+03</pdfrwt>
<pdfrwt beam="2">0</pdfrwt>
<totfact> 0.16114218E+00</totfact>
</mgrwt>
</event>
<event>
 6    1  0.2603926E-003  0.6424343E+03  0.7818608E-02  0.9821080E-01
          1   -1    0    0  502    0  0.00000000000E+00  0.00000000000E+00  0.10377226127E+03  0.10377226127E+03  0.00000000000E+00 0.  1.
         13   -1    0    0    0    0 -0.00000000000E+00 -0.00000000000E+00 -0.10000000000E+04  0.10000000000E+04  0.00000000000E+00 0.  1.
    9000005    2    1    2  501    0  0.44401814491E+00  0.14833250552E+01 -0.89536946740E+03  0.11020019407E+04  0.64243240633E+03 0.  0.
         13    1    3    3    0    0 -0.19335905583E+03  0.25211529725E+03 -0.53437820576E+03  0.62169921536E+03  0.00000000000E+00 0.  1.
          3    1    3    3  501    0  0.19380307398E+03 -0.25063197220E+03 -0.36099126164E+03  0.48030272532E+03  0.00000000000E+00 0.  1.
         21    1    1    2  502  501 -0.44401814491E+00 -0.14833250552E+01 -0.85827133159E+00  0.17703205956E+01  0.00000000000E+00 0.  1.
<mgrwt>
<rscale>  1 0.64243427E+03</rscale>
<asrwt>0</asrwt>
<pdfrwt beam="1">  1        1 0.37735447E+00 0.64243427E+03</pdfrwt>
<pdfrwt beam="2">0</pdfrwt>
<totfact> 0.16879906E+00</totfact>
</mgrwt>
</event>
<event>
 6    1  0.2603926E-003  0.5559555E+03  0.7818608E-02  0.1000125E+00
          1   -1    0    0  502    0  0.00000000000E+00  0.00000000000E+00  0.77277453087E+02  0.77277453087E+02  0.00000000000E+00 0.  1.
         13   -1    0    0    0    0 -0.00000000000E+00 -0.00000000000E+00 -0.10000000000E+04  0.10000000000E+04  0.00000000000E+00 0.  1.
    9000005    2    1    2  501    0 -0.46370068904E-02 -0.18021744495E-03 -0.92272736685E+03  0.10772707623E+04  0.55595548548E+03 0.  0.
         13    1    3    3    0    0 -0.78081442941E+02 -0.25675586928E+03 -0.32094240411E+03  0.41835907412E+03  0.00000000000E+00 0.  1.
          3    1    3    3  501    0  0.78076805934E+02  0.25675568907E+03 -0.60178496274E+03  0.65891168822E+03  0.00000000000E+00 0.  1.
         21    1    1    2  502  501  0.46370068904E-02  0.18021744495E-03  0.48199364090E-02  0.66907472091E-02  0.00000000000E+00 0.  1.
<mgrwt>
<rscale>  1 0.55595549E+03</rscale>
<asrwt>0</asrwt>
<pdfrwt beam="1">  1        1 0.28100951E+00 0.55595549E+03</pdfrwt>
<pdfrwt beam="2">0</pdfrwt>
<totfact> 0.44905573E+00</totfact>
</mgrwt>
</event>
<event>
 6    1  0.2603926E-003  0.6587148E+03  0.7818608E-02  0.9790563E-01
          1   -1    0    0  502    0  0.00000000000E+00  0.00000000000E+00  0.10852597327E+03  0.10852597327E+03  0.00000000000E+00 0.  1.
         13   -1    0    0    0    0 -0.00000000000E+00 -0.00000000000E+00 -0.10000000000E+04  0.10000000000E+04  0.00000000000E+00 0.  1.
    9000005    2    1    2  501    0  0.75037852810E-03 -0.79863746976E-04 -0.89152369946E+03  0.11084762948E+04  0.65871480129E+03 0.  0.
         13    1    3    3    0    0  0.19675745440E+03 -0.13120589975E+03 -0.60011258916E+02  0.24398736686E+03  0.00000000000E+00 0.  1.
          1    1    3    3  501    0 -0.19675670402E+03  0.13120581989E+03 -0.83151244055E+03  0.86448892794E+03  0.00000000000E+00 0.  1.
         21    1    1    2  502  501 -0.75037852810E-03  0.79863746984E-04  0.49672734230E-01  0.49678465879E-01  0.00000000000E+00 0.  1.
<mgrwt>
<rscale>  1 0.65871480E+03</rscale>
<asrwt>0</asrwt>
<pdfrwt beam="1">  1        1 0.39464073E+00 0.65871480E+03</pdfrwt>
<pdfrwt beam="2">0</pdfrwt>
<totfact> 0.14111057E+00</totfact>
</mgrwt>
</event>
<event>
 6    1  0.2603926E-003  0.6469212E+03  0.7818608E-02  0.9812573E-01
          1   -1    0    0  502    0  0.00000000000E+00  0.00000000000E+00  0.10493274438E+03  0.10493274438E+03  0.00000000000E+00 0.  1.
         13   -1    0    0    0    0 -0.00000000000E+00 -0.00000000000E+00 -0.10000000000E+04  0.10000000000E+04  0.00000000000E+00 0.  1.
    9000005    2    1    2  501    0 -0.26842489065E-01  0.43711319358E-02 -0.89537256227E+03  0.11046262288E+04  0.64692123124E+03 0.  0.
         13    1    3    3    0    0  0.94498883917E+02  0.30901938430E+03 -0.42338151672E+03  0.53261142274E+03  0.00000000000E+00 0.  1.
          3    1    3    3  501    0 -0.94525726406E+02 -0.30901501317E+03 -0.47199104555E+03  0.57201480610E+03  0.00000000000E+00 0.  1.
         21    1    1    2  502  501  0.26842489065E-01 -0.43711319359E-02  0.30530664949E+00  0.30651553996E+00  0.00000000000E+00 0. -1.
<mgrwt>
<rscale>  1 0.64692123E+03</rscale>
<asrwt>0</asrwt>
<pdfrwt beam="1">  1        1 0.38157442E+00 0.64692123E+03</pdfrwt>
<pdfrwt beam="2">0</pdfrwt>
<totfact> 0.16158375E+00</totfact>
</mgrwt>
</event>
<event>
 6    1  0.2603926E-003  0.6500206E+03  0.7818608E-02  0.9806740E-01
          1   -1    0    0  502    0  0.00000000000E+00  0.00000000000E+00  0.10563175921E+03  0.10563175921E+03  0.00000000000E+00 0.  1.
         13   -1    0    0    0    0 -0.00000000000E+00 -0.00000000000E+00 -0.10000000000E+04  0.10000000000E+04  0.00000000000E+00 0.  1.
    9000005    2    1    2  501    0 -0.49505110153E-04 -0.96394469494E-04 -0.89436821838E+03  0.11056316486E+04  0.65002063985E+03 0.  0.
         13    1    3    3    0    0  0.38324979410E+01 -0.19448671010E+03 -0.89005021445E+03  0.91105935739E+03  0.00000000000E+00 0.  1.
          3    1    3    3  501    0 -0.38325474461E+01  0.19448661371E+03 -0.43180039360E+01  0.19457229117E+03  0.00000000000E+00 0.  1.
         21    1    1    2  502  501  0.49505110153E-04  0.96394469487E-04 -0.22404992495E-04  0.11065547148E-03  0.00000000000E+00 0.  1.
<mgrwt>
<rscale>  1 0.65002064E+03</rscale>
<asrwt>0</asrwt>
<pdfrwt beam="1">  1        1 0.38411630E+00 0.65002064E+03</pdfrwt>
<pdfrwt beam="2">0</pdfrwt>
<totfact> 0.15736876E+00</totfact>
</mgrwt>
</event>
<event>
 6    1  0.2603926E-003  0.6428991E+03  0.7818608E-02  0.9820195E-01
          1   -1    0    0  502    0  0.00000000000E+00  0.00000000000E+00  0.10332982211E+03  0.10332982211E+03  0.00000000000E+00 0.  1.
         13   -1    0    0    0    0 -0.00000000000E+00 -0.00000000000E+00 -0.10000000000E+04  0.10000000000E+04  0.00000000000E+00 0.  1.
    9000005    2    1    2  501    0 -0.59365768124E-06  0.17947391143E-04 -0.89667016427E+03  0.11033297996E+04  0.64289910804E+03 0.  0.
         13    1    3    3    0    0 -0.74303691542E+01 -0.20164179553E+03 -0.18895197488E+02  0.20266142351E+03  0.00000000000E+00 0.  1.
          1    1    3    3  501    0  0.74303685605E+01  0.20164181348E+03 -0.87777496678E+03  0.90066837606E+03  0.00000000000E+00 0.  1.
         21    1    1    2  502  501  0.59365768115E-06 -0.17947391145E-04 -0.13622708267E-04  0.22539730675E-04  0.00000000000E+00 0.  1.
<mgrwt>
<rscale>  1 0.64289911E+03</rscale>
<asrwt>0</asrwt>
<pdfrwt beam="1">  1        1 0.37574560E+00 0.64289911E+03</pdfrwt>
<pdfrwt beam="2">0</pdfrwt>
<totfact> 0.17156148E+00</totfact>
</mgrwt>
</event>
<event>
 6    1  0.2603926E-003  0.6551023E+03  0.7818608E-02  0.9797252E-01
          1   -1    0    0  502    0  0.00000000000E+00  0.00000000000E+00  0.10728983382E+03  0.10728983382E+03  0.00000000000E+00 0.  1.
         13   -1    0    0    0    0 -0.00000000000E+00 -0.00000000000E+00 -0.10000000000E+04  0.10000000000E+04  0.00000000000E+00 0.  1.
    9000005    2    1    2  501    0  0.18010511745E-04  0.72424145117E-05 -0.89271023194E+03  0.11072897653E+04  0.65510233250E+03 0.  0.
         13    1    3    3    0    0 -0.57656116280E+02  0.21177362865E+03 -0.35385176169E+02  0.22231600983E+03  0.00000000000E+00 0.  1.
          3    1    3    3  501    0  0.57656134290E+02 -0.21177362141E+03 -0.85732505577E+03  0.88497375542E+03  0.00000000000E+00 0.  1.
         21    1    1    2  502  501 -0.18010511742E-04 -0.72424145239E-05  0.65758049775E-04  0.68563490369E-04  0.00000000000E+00 0.  1.
<mgrwt>
<rscale>  1 0.65510233E+03</rscale>
<asrwt>0</asrwt>
<pdfrwt beam="1">  1        1 0.39014567E+00 0.65510233E+03</pdfrwt>
<pdfrwt beam="2">0</pdfrwt>
<totfact> 0.14784661E+00</totfact>
</mgrwt>
</event>
<event>
 6    1  0.2603926E-003  0.6607158E+03  0.7818608E-02  0.9786877E-01
          1   -1    0    0  502    0  0.00000000000E+00  0.00000000000E+00  0.10915603427E+03  0.10915603427E+03  0.00000000000E+00 0.  1.
         13   -1    0    0    0    0 -0.00000000000E+00 -0.00000000000E+00 -0.10000000000E+04  0.10000000000E+04  0.00000000000E+00 0.  1.
    9000005    2    1    2  501    0 -0.11146972346E-02  0.30806637255E-02 -0.89086349593E+03  0.11091362312E+04  0.66071583222E+03 0.  0.
         13    1    3    3    0    0 -0.25427718012E+03  0.16127642325E+03 -0.21729117749E+03  0.37132522785E+03  0.00000000000E+00 0.  1.
          3    1    3    3  501    0  0.25427606542E+03 -0.16127334259E+03 -0.67357231845E+03  0.73781100334E+03  0.00000000000E+00 0.  1.
         21    1    1    2  502  501  0.11146972346E-02 -0.30806637255E-02  0.19530203766E-01  0.19803077994E-01  0.00000000000E+00 0.  1.
<mgrwt>
<rscale>  1 0.66071583E+03</rscale>
<asrwt>0</asrwt>
<pdfrwt beam="1">  1        1 0.39693187E+00 0.66071583E+03</pdfrwt>
<pdfrwt beam="2">0</pdfrwt>
<totfact> 0.13778593E+00</totfact>
</mgrwt>
</event>
<event>
 6    1  0.2603926E-003  0.6490452E+03  0.7818608E-02  0.9808573E-01
          1   -1    0    0  502    0  0.00000000000E+00  0.00000000000E+00  0.10532006174E+03  0.10532006174E+03  0.00000000000E+00 0.  1.
         13   -1    0    0    0    0 -0.00000000000E+00 -0.00000000000E+00 -0.10000000000E+04  0.10000000000E+04  0.00000000000E+00 0.  1.
    9000005    2    1    2  501    0 -0.63702681530E-04  0.24056748907E-03 -0.89468509434E+03  0.11053148997E+04  0.64904515201E+03 0.  0.
         13    1    3    3    0    0  0.26295588493E+03  0.11306855542E+03 -0.18692142319E+03  0.34186241983E+03  0.00000000000E+00 0.  1.
          1    1    3    3  501    0 -0.26295594863E+03 -0.11306831485E+03 -0.70776367115E+03  0.76345247982E+03  0.00000000000E+00 0.  1.
         21    1    1    2  502  501  0.63702681579E-04 -0.24056748907E-03  0.51560823877E-02  0.51620844953E-02  0.00000000000E+00 0.  1.
<mgrwt>
<rscale>  1 0.64904515E+03</rscale>
<asrwt>0</asrwt>
<pdfrwt beam="1">  1        1 0.38298285E+00 0.64904515E+03</pdfrwt>
<pdfrwt beam="2">0</pdfrwt>
<totfact> 0.15922325E+00</totfact>
</mgrwt>
</event>
<event>
 6    1  0.2603926E-003  0.6505651E+03  0.7818608E-02  0.9805719E-01
          1   -1    0    0  502    0  0.00000000000E+00  0.00000000000E+00  0.10581154667E+03  0.10581154667E+03  0.00000000000E+00 0.  1.
         13   -1    0    0    0    0 -0.00000000000E+00 -0.00000000000E+00 -0.10000000000E+04  0.10000000000E+04  0.00000000000E+00 0.  1.
    9000005    2    1    2  501    0 -0.13482354881E-02  0.10537480173E-03 -0.89419108027E+03  0.11058085921E+04  0.65056510377E+03 0.  0.
         13    1    3    3    0    0 -0.98001994936E+02  0.24213380492E+03 -0.77658636343E+03  0.81934092437E+03  0.00000000000E+00 0.  1.
          1    1    3    3  501    0  0.98000646701E+02 -0.24213369954E+03 -0.11760471685E+03  0.28646766769E+03  0.00000000000E+00 0.  1.
         21    1    1    2  502  501  0.13482354881E-02 -0.10537480175E-03  0.26269424192E-02  0.29546013697E-02  0.00000000000E+00 0. -1.
<mgrwt>
<rscale>  1 0.65056510E+03</rscale>
<asrwt>0</asrwt>
<pdfrwt beam="1">  1        1 0.38477007E+00 0.65056510E+03</pdfrwt>
<pdfrwt beam="2">0</pdfrwt>
<totfact> 0.15630897E+00</totfact>
</mgrwt>
</event>
<event>
 6    1  0.2603926E-003  0.6436229E+03  0.7818608E-02  0.9818820E-01
          1   -1    0    0  502    0  0.00000000000E+00  0.00000000000E+00  0.10356271007E+03  0.10356271007E+03  0.00000000000E+00 0.  1.
         13   -1    0    0    0    0 -0.00000000000E+00 -0.00000000000E+00 -0.10000000000E+04  0.10000000000E+04  0.00000000000E+00 0.  1.
    9000005    2    1    2  501    0 -0.15553172489E-04 -0.96131610942E-04 -0.89643736969E+03  0.11035625842E+04  0.64362288606E+03 0.  0.
         13    1    3    3    0    0  0.26189745186E+03  0.25332183319E+02 -0.76591061930E+03  0.80984632590E+03  0.00000000000E+00 0.  1.
          3    1    3    3  501    0 -0.26189746742E+03 -0.25332279450E+02 -0.13052675039E+03  0.29371625830E+03  0.00000000000E+00 0.  1.
         21    1    1    2  502  501  0.15553172489E-04  0.96131610941E-04  0.79766572643E-04  0.12588047469E-03  0.00000000000E+00 0. -1.
<mgrwt>
<rscale>  1 0.64362289E+03</rscale>
<asrwt>0</asrwt>
<pdfrwt beam="1">  1        1 0.37659247E+00 0.64362289E+03</pdfrwt>
<pdfrwt beam="2">0</pdfrwt>
<totfact> 0.17007187E+00</totfact>
</mgrwt>
</event>
<event>
 6    1  0.2603926E-003  0.6642150E+03  0.7818608E-02  0.9780465E-01
          1   -1    0    0  502    0  0.00000000000E+00  0.00000000000E+00  0.11558018805E+03  0.11558018805E+03  0.00000000000E+00 0.  1.
         13   -1    0    0    0    0 -0.00000000000E+00 -0.00000000000E+00 -0.10000000000E+04  0.10000000000E+04  0.00000000000E+00 0.  1.
    9000005    2    1    2  501    0  0.69611877488E+00  0.29672578845E+01 -0.88921214113E+03  0.11099007849E+04  0.66420797292E+03 0.  0.
         13    1    3    3    0    0 -0.24827924844E+03 -0.21804562733E+03 -0.47120175710E+03  0.57551505341E+03  0.00000000000E+00 0.  1.
          1    1    3    3  501    0  0.24897536721E+03  0.22101288522E+03 -0.41801038403E+03  0.53438573154E+03  0.00000000000E+00 0.  1.
         21    1    1    2  502  501 -0.69611877488E+00 -0.29672578845E+01  0.47923291824E+01  0.56794031108E+01  0.00000000000E+00 0.  1.
<mgrwt>
<rscale>  1 0.66421497E+03</rscale>
<asrwt>0</asrwt>
<pdfrwt beam="1">  1        1 0.42029248E+00 0.66421497E+03</pdfrwt>
<pdfrwt beam="2">0</pdfrwt>
<totfact> 0.10820008E+00</totfact>
</mgrwt>
</event>
<event>
 6    1  0.2603926E-003  0.6446129E+03  0.7818608E-02  0.9816940E-01
          1   -1    0    0  502    0  0.00000000000E+00  0.00000000000E+00  0.10403975521E+03  0.10403975521E+03  0.00000000000E+00 0.  1.
         13   -1    0    0    0    0 -0.00000000000E+00 -0.00000000000E+00 -0.10000000000E+04  0.10000000000E+04  0.00000000000E+00 0.  1.
    9000005    2    1    2  501    0 -0.22469782113E+00 -0.25651727447E+00 -0.89588273944E+03  0.11036900449E+04  0.64461284201E+03 0.  0.
         13    1    3    3    0    0  0.18192589862E+03 -0.26361167368E+03 -0.51020523639E+03  0.60240976945E+03  0.00000000000E+00 0.  1.
          3    1    3    3  501    0 -0.18215059644E+03  0.26335515641E+03 -0.38567750305E+03  0.50128027544E+03  0.00000000000E+00 0.  1.
         21    1    1    2  502  501  0.22469782113E+00  0.25651727447E+00 -0.77505353084E-01  0.34971031251E+00  0.00000000000E+00 0. -1.
<mgrwt>
<rscale>  1 0.64461293E+03</rscale>
<asrwt>0</asrwt>
<pdfrwt beam="1">  1        1 0.37832718E+00 0.64461293E+03</pdfrwt>
<pdfrwt beam="2">0</pdfrwt>
<totfact> 0.16707406E+00</totfact>
</mgrwt>
</event>
<event>
 6    1  0.2603926E-003  0.6519022E+03  0.7818608E-02  0.9803216E-01
          1   -1    0    0  502    0  0.00000000000E+00  0.00000000000E+00  0.10789962096E+03  0.10789962096E+03  0.00000000000E+00 0.  1.
         13   -1    0    0    0    0 -0.00000000000E+00 -0.00000000000E+00 -0.10000000000E+04  0.10000000000E+04  0.00000000000E+00 0.  1.
    9000005    2    1    2  501    0 -0.28808824237E-01  0.40890220621E-01 -0.89375547740E+03  0.11062437669E+04  0.65190215216E+03 0.  0.
         13    1    3    3    0    0  0.25265283566E+03  0.20480751284E+03 -0.41026265399E+03  0.52354084649E+03  0.00000000000E+00 0.  1.
          3    1    3    3  501    0 -0.25268164449E+03 -0.20476662262E+03 -0.48349282342E+03  0.58270292044E+03  0.00000000000E+00 0.  1.
         21    1    1    2  502  501  0.28808824237E-01 -0.40890220621E-01  0.16550983611E+01  0.16558540224E+01  0.00000000000E+00 0.  1.
<mgrwt>
<rscale>  1 0.65190215E+03</rscale>
<asrwt>0</asrwt>
<pdfrwt beam="1">  1        1 0.39236309E+00 0.65190215E+03</pdfrwt>
<pdfrwt beam="2">0</pdfrwt>
<totfact> 0.14462076E+00</totfact>
</mgrwt>
</event>
<event>
 6    1  0.2603926E-003  0.6425818E+03  0.7818608E-02  0.9820799E-01
          1   -1    0    0  502    0  0.00000000000E+00  0.00000000000E+00  0.10363990030E+03  0.10363990030E+03  0.00000000000E+00 0.  1.
         13   -1    0    0    0    0 -0.00000000000E+00 -0.00000000000E+00 -0.10000000000E+04  0.10000000000E+04  0.00000000000E+00 0.  1.
    9000005    2    1    2  501    0  0.13516115318E-01  0.23508321826E-01 -0.89677168070E+03  0.11032274270E+04  0.64258175168E+03 0.  0.
         13    1    3    3    0    0  0.79106098090E+02  0.29507313228E+03 -0.27749168258E+03  0.41270759873E+03  0.00000000000E+00 0.  1.
          3    1    3    3  501    0 -0.79092581975E+02 -0.29504962396E+03 -0.61927999812E+03  0.69051982824E+03  0.00000000000E+00 0.  1.
         21    1    1    2  502  501 -0.13516115318E-01 -0.23508321826E-01  0.41158099839E+00  0.41247332618E+00  0.00000000000E+00 0.  1.
<mgrwt>
<rscale>  1 0.64258175E+03</rscale>
<asrwt>0</asrwt>
<pdfrwt beam="1">  1        1 0.37687316E+00 0.64258175E+03</pdfrwt>
<pdfrwt beam="2">0</pdfrwt>
<totfact> 0.16962071E+00</totfact>
</mgrwt>
</event>
<event>
 6    1  0.2603926E-003  0.6408710E+03  0.7818608E-02  0.9824062E-01
          1   -1    0    0  502    0  0.00000000000E+00  0.00000000000E+00  0.10267890277E+03  0.10267890277E+03  0.00000000000E+00 0.  1.
         13   -1    0    0    0    0 -0.00000000000E+00 -0.00000000000E+00 -0.10000000000E+04  0.10000000000E+04  0.00000000000E+00 0.  1.
    9000005    2    1    2  501    0 -0.38907982258E-05 -0.64179459969E-06 -0.89732110212E+03  0.11026788965E+04  0.64087096085E+03 0.  0.
         13    1    3    3    0    0 -0.11494399084E+03  0.19191201246E+03 -0.53910494158E+02  0.23010580813E+03  0.00000000000E+00 0.  1.
          3    1    3    3  501    0  0.11494398695E+03 -0.19191201310E+03 -0.84341060796E+03  0.87257308836E+03  0.00000000000E+00 0.  1.
         21    1    1    2  502  501  0.38907982268E-05  0.64179458794E-06  0.48909499215E-05  0.62826429366E-05  0.00000000000E+00 0.  1.
<mgrwt>
<rscale>  1 0.64087096E+03</rscale>
<asrwt>0</asrwt>
<pdfrwt beam="1">  1        1 0.37337862E+00 0.64087096E+03</pdfrwt>
<pdfrwt beam="2">0</pdfrwt>
<totfact> 0.17579148E+00</totfact>
</mgrwt>
</event>
<event>
 6    1  0.2603926E-003  0.6495363E+03  0.7818608E-02  0.9807650E-01
          1   -1    0    0  502    0  0.00000000000E+00  0.00000000000E+00  0.10547801997E+03  0.10547801997E+03  0.00000000000E+00 0.  1.
         13   -1    0    0    0    0 -0.00000000000E+00 -0.00000000000E+00 -0.10000000000E+04  0.10000000000E+04  0.00000000000E+00 0.  1.
    9000005    2    1    2  501    0  0.30459614662E-02  0.19736292928E-02 -0.89452465011E+03  0.11054735142E+04  0.64953625058E+03 0.  0.
         13    1    3    3    0    0  0.86685056691E+02  0.31169011923E+03 -0.39882052030E+03  0.51353951834E+03  0.00000000000E+00 0.  1.
          3    1    3    3  501    0 -0.86682010730E+02 -0.31168814560E+03 -0.49570412981E+03  0.59193399582E+03  0.00000000000E+00 0.  1.
         21    1    1    2  502  501 -0.30459614662E-02 -0.19736292929E-02  0.26700839699E-02  0.45058231485E-02  0.00000000000E+00 0.  1.
<mgrwt>
<rscale>  1 0.64953625E+03</rscale>
<asrwt>0</asrwt>
<pdfrwt beam="1">  1        1 0.38355725E+00 0.64953625E+03</pdfrwt>
<pdfrwt beam="2">0</pdfrwt>
<totfact> 0.15828097E+00</totfact>
</mgrwt>
</event>
<event>
 6    1  0.2603926E-003  0.6672234E+03  0.7818608E-02  0.9774987E-01
          1   -1    0    0  502    0  0.00000000000E+00  0.00000000000E+00  0.11799038736E+03  0.11799038736E+03  0.00000000000E+00 0.  1.
         13   -1    0    0    0    0 -0.00000000000E+00 -0.00000000000E+00 -0.10000000000E+04  0.10000000000E+04  0.00000000000E+00 0.  1.
    9000005    2    1    2  501    0  0.14606818529E+02  0.18886253804E+01 -0.87794330972E+03  0.11027109609E+04  0.66706077845E+03 0.  0.
         13    1    3    3    0    0 -0.84851333413E+02  0.29111557603E+03 -0.21229190112E+03  0.37015655968E+03  0.00000000000E+00 0.  1.
          3    1    3    3  501    0  0.99458151942E+02 -0.28922695065E+03 -0.66565140861E+03  0.73255440122E+03  0.00000000000E+00 0.  1.
         21    1    1    2  502  501 -0.14606818529E+02 -0.18886253804E+01 -0.40663029195E+01  0.15279426455E+02  0.00000000000E+00 0.  1.
<mgrwt>
<rscale>  1 0.66722336E+03</rscale>
<asrwt>0</asrwt>
<pdfrwt beam="1">  1        1 0.42905686E+00 0.66722336E+03</pdfrwt>
<pdfrwt beam="2">0</pdfrwt>
<totfact> 0.98697172E-01</totfact>
</mgrwt>
</event>
<event>
 6    1  0.2603926E-003  0.6508917E+03  0.7818608E-02  0.9805107E-01
          1   -1    0    0  502    0  0.00000000000E+00  0.00000000000E+00  0.10592270823E+03  0.10592270823E+03  0.00000000000E+00 0.  1.
         13   -1    0    0    0    0 -0.00000000000E+00 -0.00000000000E+00 -0.10000000000E+04  0.10000000000E+04  0.00000000000E+00 0.  1.
    9000005    2    1    2  501    0  0.21355585199E-03 -0.51099266926E-03 -0.89408499103E+03  0.11059149891E+04  0.65089168981E+03 0.  0.
         13    1    3    3    0    0 -0.14911654256E+03  0.15168437428E+03 -0.28534442565E+02  0.21461152597E+03  0.00000000000E+00 0.  1.
          1    1    3    3  501    0  0.14911675612E+03 -0.15168488528E+03 -0.86555054847E+03  0.89130346310E+03  0.00000000000E+00 0.  1.
         21    1    1    2  502  501 -0.21355585200E-03  0.51099266929E-03  0.76992629627E-02  0.77191560277E-02  0.00000000000E+00 0.  1.
<mgrwt>
<rscale>  1 0.65089169E+03</rscale>
<asrwt>0</asrwt>
<pdfrwt beam="1">  1        1 0.38517430E+00 0.65089169E+03</pdfrwt>
<pdfrwt beam="2">0</pdfrwt>
<totfact> 0.15565739E+00</totfact>
</mgrwt>
</event>
<event>
 6    1  0.2603926E-003  0.6166166E+03  0.7818608E-02  0.9871519E-01
          1   -1    0    0  502    0  0.00000000000E+00  0.00000000000E+00  0.95199250820E+02  0.95199250820E+02  0.00000000000E+00 0.  1.
         13   -1    0    0    0    0 -0.00000000000E+00 -0.00000000000E+00 -0.10000000000E+04  0.10000000000E+04  0.00000000000E+00 0.  1.
    9000005    2    1    2  501    0 -0.15460214354E+00 -0.11566797328E+00 -0.90487248368E+03  0.10949932733E+04  0.61661659041E+03 0.  0.
         13    1    3    3    0    0 -0.25802500450E+03  0.51080859340E+01 -0.15278968176E+03  0.29991279123E+03  0.00000000000E+00 0.  1.
          3    1    3    3  501    0  0.25787040236E+03 -0.52237539073E+01 -0.75208280192E+03  0.79508048207E+03  0.00000000000E+00 0.  1.
         21    1    1    2  502  501  0.15460214354E+00  0.11566797328E+00  0.71734497068E-01  0.20597752523E+00  0.00000000000E+00 0.  1.
<mgrwt>
<rscale>  1 0.61661662E+03</rscale>
<asrwt>0</asrwt>
<pdfrwt beam="1">  1        1 0.34617982E+00 0.61661662E+03</pdfrwt>
<pdfrwt beam="2">0</pdfrwt>
<totfact> 0.23219860E+00</totfact>
</mgrwt>
</event>
<event>
 6    1  0.2603926E-003  0.6408933E+03  0.7818608E-02  0.9824019E-01
          3   -1    0    0  502    0  0.00000000000E+00  0.00000000000E+00  0.10268670107E+03  0.10268670107E+03  0.00000000000E+00 0.  1.
         13   -1    0    0    0    0 -0.00000000000E+00 -0.00000000000E+00 -0.10000000000E+04  0.10000000000E+04  0.00000000000E+00 0.  1.
    9000005    2    1    2  501    0  0.12109073617E-02 -0.10608068542E-02 -0.89731252722E+03  0.11026849158E+04  0.64089332344E+03 0.  0.
         13    1    3    3    0    0 -0.25754934186E+03  0.12706888729E+03 -0.20407500057E+03  0.35231345627E+03  0.00000000000E+00 0.  1.
          1    1    3    3  501    0  0.25755055276E+03 -0.12706994810E+03 -0.69323752665E+03  0.75037145954E+03  0.00000000000E+00 0.  1.
         21    1    1    2  502  501 -0.12109073617E-02  0.10608068542E-02 -0.77171247713E-03  0.17852585157E-02  0.00000000000E+00 0.  1.
<mgrwt>
<rscale>  1 0.64089332E+03</rscale>
<asrwt>0</asrwt>
<pdfrwt beam="1">  1        3 0.37340697E+00 0.64089332E+03</pdfrwt>
<pdfrwt beam="2">0</pdfrwt>
<totfact> 0.81910430E-02</totfact>
</mgrwt>
</event>
<event>
 6    1  0.2603926E-003  0.6421783E+03  0.7818608E-02  0.9821568E-01
          1   -1    0    0  502    0  0.00000000000E+00  0.00000000000E+00  0.10380191712E+03  0.10380191712E+03  0.00000000000E+00 0.  1.
         13   -1    0    0    0    0 -0.00000000000E+00 -0.00000000000E+00 -0.10000000000E+04  0.10000000000E+04  0.00000000000E+00 0.  1.
    9000005    2    1    2  501    0  0.24257061498E-01  0.99590923447E-01 -0.89689763719E+03  0.11030948931E+04  0.64217829381E+03 0.  0.
         13    1    3    3    0    0  0.10756069880E+03  0.22198580625E+03 -0.95316177411E+02  0.26444692432E+03  0.00000000000E+00 0.  1.
          3    1    3    3  501    0 -0.10753644174E+03 -0.22188621533E+03 -0.80158145978E+03  0.83864796877E+03  0.00000000000E+00 0.  1.
         21    1    1    2  502  501 -0.24257061498E-01 -0.99590923448E-01  0.69955430846E+00  0.70702403605E+00  0.00000000000E+00 0. -1.
<mgrwt>
<rscale>  1 0.64217830E+03</rscale>
<asrwt>0</asrwt>
<pdfrwt beam="1">  1        1 0.37746231E+00 0.64217830E+03</pdfrwt>
<pdfrwt beam="2">0</pdfrwt>
<totfact> 0.16862240E+00</totfact>
</mgrwt>
</event>
<event>
 6    1  0.2603926E-003  0.6336438E+03  0.7818608E-02  0.9837964E-01
          1   -1    0    0  502    0  0.00000000000E+00  0.00000000000E+00  0.10045035314E+03  0.10045035314E+03  0.00000000000E+00 0.  1.
         13   -1    0    0    0    0 -0.00000000000E+00 -0.00000000000E+00 -0.10000000000E+04  0.10000000000E+04  0.00000000000E+00 0.  1.
    9000005    2    1    2  501    0  0.20365084120E-01  0.75360620088E-01 -0.89960065670E+03  0.11003571010E+04  0.63364375013E+03 0.  0.
         13    1    3    3    0    0 -0.45193596091E+02  0.31243593729E+03 -0.40261004558E+03  0.51161853449E+03  0.00000000000E+00 0.  1.
          1    1    3    3  501    0  0.45213961175E+02 -0.31236057667E+03 -0.49699061112E+03  0.58873856650E+03  0.00000000000E+00 0.  1.
         21    1    1    2  502  501 -0.20365084120E-01 -0.75360620088E-01  0.51009841827E-01  0.93252151045E-01  0.00000000000E+00 0. -1.
<mgrwt>
<rscale>  1 0.63364375E+03</rscale>
<asrwt>0</asrwt>
<pdfrwt beam="1">  1        1 0.36527478E+00 0.63364375E+03</pdfrwt>
<pdfrwt beam="2">0</pdfrwt>
<totfact> 0.19105119E+00</totfact>
</mgrwt>
</event>
<event>
 6    1  0.2603926E-003  0.6458814E+03  0.7818608E-02  0.9814538E-01
          1   -1    0    0  502    0  0.00000000000E+00  0.00000000000E+00  0.10441618683E+03  0.10441618683E+03  0.00000000000E+00 0.  1.
         13   -1    0    0    0    0 -0.00000000000E+00 -0.00000000000E+00 -0.10000000000E+04  0.10000000000E+04  0.00000000000E+00 0.  1.
    9000005    2    1    2  501    0 -0.26342014255E-02  0.10408285082E-02 -0.89570929184E+03  0.11042906762E+04  0.64588138388E+03 0.  0.
         13    1    3    3    0    0 -0.29649392643E+03  0.59476900213E+02 -0.25407858782E+03  0.39497098483E+03  0.00000000000E+00 0.  1.
          3    1    3    3  501    0  0.29649129223E+03 -0.59475859384E+02 -0.64163070402E+03  0.70931969137E+03  0.00000000000E+00 0.  1.
         21    1    1    2  502  501  0.26342014255E-02 -0.10408285082E-02  0.12547866491E+00  0.12551062779E+00  0.00000000000E+00 0. -1.
<mgrwt>
<rscale>  1 0.64588138E+03</rscale>
<asrwt>0</asrwt>
<pdfrwt beam="1">  1        1 0.37969603E+00 0.64588138E+03</pdfrwt>
<pdfrwt beam="2">0</pdfrwt>
<totfact> 0.16472941E+00</totfact>
</mgrwt>
</event>
<event>
 6    1  0.2603926E-003  0.6493465E+03  0.7818608E-02  0.9808006E-01
          1   -1    0    0  502    0  0.00000000000E+00  0.00000000000E+00  0.12150307132E+03  0.12150307132E+03  0.00000000000E+00 0.  1.
         13   -1    0    0    0    0 -0.00000000000E+00 -0.00000000000E+00 -0.10000000000E+04  0.10000000000E+04  0.00000000000E+00 0.  1.
    9000005    2    1    2  501    0 -0.27052228818E+01  0.72277088680E+01 -0.89355799413E+03  0.11045799008E+04  0.64930063181E+03 0.  0.
         13    1    3    3    0    0 -0.28376828056E+02 -0.31857790081E+03 -0.49223244893E+03  0.58701780810E+03  0.00000000000E+00 0.  1.
          3    1    3    3  501    0  0.25671605174E+02  0.32580560968E+03 -0.40132554521E+03  0.51756209274E+03  0.00000000000E+00 0.  1.
         21    1    1    2  502  501  0.27052228818E+01 -0.72277088680E+01  0.15061065458E+02  0.16923170479E+02  0.00000000000E+00 0.  1.
<mgrwt>
<rscale>  1 0.64934649E+03</rscale>
<asrwt>0</asrwt>
<pdfrwt beam="1">  1        1 0.44183028E+00 0.64934649E+03</pdfrwt>
<pdfrwt beam="2">0</pdfrwt>
<totfact> 0.86625565E-01</totfact>
</mgrwt>
</event>
<event>
 6    1  0.2603926E-003  0.6534313E+03  0.7818608E-02  0.9800362E-01
          1   -1    0    0  502    0  0.00000000000E+00  0.00000000000E+00  0.10676454484E+03  0.10676454484E+03  0.00000000000E+00 0.  1.
         13   -1    0    0    0    0 -0.00000000000E+00 -0.00000000000E+00 -0.10000000000E+04  0.10000000000E+04  0.00000000000E+00 0.  1.
    9000005    2    1    2  501    0 -0.12265655463E-02 -0.20475332025E-03 -0.89325685564E+03  0.11067431083E+04  0.65343132579E+03 0.  0.
         13    1    3    3    0    0  0.19315712751E+03  0.25710866987E+03 -0.34891366117E+03  0.47450530764E+03  0.00000000000E+00 0.  1.
          1    1    3    3  501    0 -0.19315835407E+03 -0.25710887462E+03 -0.54434319447E+03  0.63223780061E+03  0.00000000000E+00 0.  1.
         21    1    1    2  502  501  0.12265655463E-02  0.20475332023E-03  0.21400482149E-01  0.21436581425E-01  0.00000000000E+00 0.  1.
<mgrwt>
<rscale>  1 0.65343133E+03</rscale>
<asrwt>0</asrwt>
<pdfrwt beam="1">  1        1 0.38823553E+00 0.65343133E+03</pdfrwt>
<pdfrwt beam="2">0</pdfrwt>
<totfact> 0.15080416E+00</totfact>
</mgrwt>
</event>
<event>
 6    1  0.2603926E-003  0.5376545E+03  0.7818608E-02  0.1004392E+00
          1   -1    0    0  502    0  0.00000000000E+00  0.00000000000E+00  0.73795966780E+02  0.73795966780E+02  0.00000000000E+00 0.  1.
         13   -1    0    0    0    0 -0.00000000000E+00 -0.00000000000E+00 -0.10000000000E+04  0.10000000000E+04  0.00000000000E+00 0.  1.
    9000005    2    1    2  501    0 -0.22031802616E+00  0.12515718040E+00 -0.92772064037E+03  0.10722583382E+04  0.53765443652E+03 0.  0.
         13    1    3    3    0    0  0.84976898645E+02 -0.25182404335E+03 -0.38439087129E+03  0.46732511600E+03  0.00000000000E+00 0.  1.
          1    1    3    3  501    0 -0.85197216671E+02  0.25194920053E+03 -0.54332976908E+03  0.60493322222E+03  0.00000000000E+00 0.  1.
         21    1    1    2  502  501  0.22031802616E+00 -0.12515718040E+00  0.15166071478E+01  0.15376285615E+01  0.00000000000E+00 0.  1.
<mgrwt>
<rscale>  1 0.53765450E+03</rscale>
<asrwt>0</asrwt>
<pdfrwt beam="1">  1        1 0.26834954E+00 0.53765450E+03</pdfrwt>
<pdfrwt beam="2">0</pdfrwt>
<totfact> 0.51092721E+00</totfact>
</mgrwt>
</event>
<event>
 6    1  0.2603926E-003  0.6460545E+03  0.7818608E-02  0.9814211E-01
          1   -1    0    0  502    0  0.00000000000E+00  0.00000000000E+00  0.10455165026E+03  0.10455165026E+03  0.00000000000E+00 0.  1.
         13   -1    0    0    0    0 -0.00000000000E+00 -0.00000000000E+00 -0.10000000000E+04  0.10000000000E+04  0.00000000000E+00 0.  1.
    9000005    2    1    2  501    0 -0.39098593938E-02  0.24997931032E-02 -0.89565338260E+03  0.11043465649E+04  0.64605445095E+03 0.  0.
         13    1    3    3    0    0 -0.30634376760E+03 -0.10242658247E+03 -0.44247170471E+03  0.54783110373E+03  0.00000000000E+00 0.  1.
          1    1    3    3  501    0  0.30633985774E+03  0.10242908226E+03 -0.45318167789E+03  0.55651546116E+03  0.00000000000E+00 0.  1.
         21    1    1    2  502  501  0.39098593938E-02 -0.24997931032E-02  0.20503286384E+00  0.20508537545E+00  0.00000000000E+00 0. -1.
<mgrwt>
<rscale>  1 0.64605445E+03</rscale>
<asrwt>0</asrwt>
<pdfrwt beam="1">  1        1 0.38018862E+00 0.64605445E+03</pdfrwt>
<pdfrwt beam="2">0</pdfrwt>
<totfact> 0.16390189E+00</totfact>
</mgrwt>
</event>
<event>
 6    1  0.2603926E-003  0.6545047E+03  0.7818608E-02  0.9798363E-01
          1   -1    0    0  502    0  0.00000000000E+00  0.00000000000E+00  0.10743392688E+03  0.10743392688E+03  0.00000000000E+00 0.  1.
         13   -1    0    0    0    0 -0.00000000000E+00 -0.00000000000E+00 -0.10000000000E+04  0.10000000000E+04  0.00000000000E+00 0.  1.
    9000005    2    1    2  501    0  0.18992474874E-01 -0.82346961464E-02 -0.89290554353E+03  0.11070938259E+04  0.65450472055E+03 0.  0.
         13    1    3    3    0    0  0.18598237206E+02  0.31384137394E+03 -0.29281409987E+03  0.42963053837E+03  0.00000000000E+00 0.  1.
          1    1    3    3  501    0 -0.18579244731E+02 -0.31384960863E+03 -0.60009144366E+03  0.67746328752E+03  0.00000000000E+00 0.  1.
         21    1    1    2  502  501 -0.18992474874E-01  0.82346961463E-02  0.33947041214E+00  0.34010099241E+00  0.00000000000E+00 0.  1.
<mgrwt>
<rscale>  1 0.65450472E+03</rscale>
<asrwt>0</asrwt>
<pdfrwt beam="1">  1        1 0.39066965E+00 0.65450472E+03</pdfrwt>
<pdfrwt beam="2">0</pdfrwt>
<totfact> 0.14707381E+00</totfact>
</mgrwt>
</event>
<event>
 6    1  0.2603926E-003  0.6498242E+03  0.7818608E-02  0.9807109E-01
          1   -1    0    0  502    0  0.00000000000E+00  0.00000000000E+00  0.10556888728E+03  0.10556888728E+03  0.00000000000E+00 0.  1.
         13   -1    0    0    0    0 -0.00000000000E+00 -0.00000000000E+00 -0.10000000000E+04  0.10000000000E+04  0.00000000000E+00 0.  1.
    9000005    2    1    2  501    0 -0.24239253273E-03  0.11889071175E-03 -0.89443210923E+03  0.11055678548E+04  0.64982419441E+03 0.  0.
         13    1    3    3    0    0  0.24270275388E+03 -0.21466878617E+03 -0.48820609011E+03  0.58594581739E+03  0.00000000000E+00 0.  1.
          1    1    3    3  501    0 -0.24270299627E+03  0.21466890506E+03 -0.40622601912E+03  0.51962203745E+03  0.00000000000E+00 0.  1.
         21    1    1    2  502  501  0.24239253272E-03 -0.11889071173E-03  0.99650812545E-03  0.10324328479E-02  0.00000000000E+00 0. -1.
<mgrwt>
<rscale>  1 0.64982419E+03</rscale>
<asrwt>0</asrwt>
<pdfrwt beam="1">  1        1 0.38388767E+00 0.64982419E+03</pdfrwt>
<pdfrwt beam="2">0</pdfrwt>
<totfact> 0.15774116E+00</totfact>
</mgrwt>
</event>
<event>
 6    1  0.2603926E-003  0.6342693E+03  0.7818608E-02  0.9836753E-01
          1   -1    0    0  502    0  0.00000000000E+00  0.00000000000E+00  0.10059037245E+03  0.10059037245E+03  0.00000000000E+00 0.  1.
         13   -1    0    0    0    0 -0.00000000000E+00 -0.00000000000E+00 -0.10000000000E+04  0.10000000000E+04  0.00000000000E+00 0.  1.
    9000005    2    1    2  501    0 -0.94404298835E-04  0.24756388089E-03 -0.89942559764E+03  0.11005744002E+04  0.63426934704E+03 0.  0.
         13    1    3    3    0    0  0.15523883607E+03  0.16068624239E+03 -0.59179650987E+02  0.23113068989E+03  0.00000000000E+00 0.  1.
          3    1    3    3  501    0 -0.15523893047E+03 -0.16068599482E+03 -0.84024594666E+03  0.86944371028E+03  0.00000000000E+00 0.  1.
         21    1    1    2  502  501  0.94404298837E-04 -0.24756388088E-03  0.15970088022E-01  0.15972285731E-01  0.00000000000E+00 0.  1.
<mgrwt>
<rscale>  1 0.63426935E+03</rscale>
<asrwt>0</asrwt>
<pdfrwt beam="1">  1        1 0.36578394E+00 0.63426935E+03</pdfrwt>
<pdfrwt beam="2">0</pdfrwt>
<totfact> 0.19005033E+00</totfact>
</mgrwt>
</event>
<event>
 6    1  0.2603926E-003  0.6666181E+03  0.7818608E-02  0.9776087E-01
          1   -1    0    0  502    0  0.00000000000E+00  0.00000000000E+00  0.11109948857E+03  0.11109948857E+03  0.00000000000E+00 0.  1.
         13   -1    0    0    0    0 -0.00000000000E+00 -0.00000000000E+00 -0.10000000000E+04  0.10000000000E+04  0.00000000000E+00 0.  1.
    9000005    2    1    2  501    0 -0.76990585593E-02 -0.24285737500E-02 -0.88890071643E+03  0.11110914130E+04  0.66661806473E+03 0.  0.
         13    1    3    3    0    0 -0.13950766359E+03  0.70165689418E+02 -0.93525584879E+03  0.94820309790E+03  0.00000000000E+00 0.  1.
          3    1    3    3  501    0  0.13949996453E+03 -0.70168117992E+02  0.46355132361E+02  0.16288831506E+03  0.00000000000E+00 0.  1.
         21    1    1    2  502  501  0.76990585593E-02  0.24285737500E-02  0.20499441145E-03  0.80756111761E-02  0.00000000000E+00 0.  1.
<mgrwt>
<rscale>  1 0.66661806E+03</rscale>
<asrwt>0</asrwt>
<pdfrwt beam="1">  1        1 0.40399899E+00 0.66661806E+03</pdfrwt>
<pdfrwt beam="2">0</pdfrwt>
<totfact> 0.12799758E+00</totfact>
</mgrwt>
</event>
<event>
 6    1  0.2603926E-003  0.6781428E+03  0.7818608E-02  0.9755359E-01
          1   -1    0    0  502    0  0.00000000000E+00  0.00000000000E+00  0.11497032358E+03  0.11497032358E+03  0.00000000000E+00 0.  1.
         13   -1    0    0    0    0 -0.00000000000E+00 -0.00000000000E+00 -0.10000000000E+04  0.10000000000E+04  0.00000000000E+00 0.  1.
    9000005    2    1    2  501    0 -0.24515296661E-03 -0.27696647649E-03 -0.88503052680E+03  0.11149693962E+04  0.67814284718E+03 0.  0.
         13    1    3    3    0    0 -0.31474892583E+03  0.84262209027E+02 -0.59677213733E+03  0.67992940080E+03  0.00000000000E+00 0.  1.
          1    1    3    3  501    0  0.31474868067E+03 -0.84262485994E+02 -0.28825838948E+03  0.43503999544E+03  0.00000000000E+00 0.  1.
         21    1    1    2  502  501  0.24515296660E-03  0.27696647649E-03  0.85038198353E-03  0.92734024179E-03  0.00000000000E+00 0.  1.
<mgrwt>
<rscale>  1 0.67814285E+03</rscale>
<asrwt>0</asrwt>
<pdfrwt beam="1">  1        1 0.41807479E+00 0.67814285E+03</pdfrwt>
<pdfrwt beam="2">0</pdfrwt>
<totfact> 0.11042581E+00</totfact>
</mgrwt>
</event>
<event>
 6    1  0.2603926E-003  0.6526077E+03  0.7818608E-02  0.9801898E-01
          1   -1    0    0  502    0  0.00000000000E+00  0.00000000000E+00  0.10647534315E+03  0.10647534315E+03  0.00000000000E+00 0.  1.
         13   -1    0    0    0    0 -0.00000000000E+00 -0.00000000000E+00 -0.10000000000E+04  0.10000000000E+04  0.00000000000E+00 0.  1.
    9000005    2    1    2  501    0 -0.14106786759E-03 -0.12956274659E-03 -0.89352578433E+03  0.11064741995E+04  0.65260771291E+03 0.  0.
         13    1    3    3    0    0 -0.20392548688E+03  0.36501876679E+02 -0.19329807528E+02  0.20806641406E+03  0.00000000000E+00 0.  1.
          1    1    3    3  501    0  0.20392534581E+03 -0.36502006242E+02 -0.87419597680E+03  0.89840778546E+03  0.00000000000E+00 0.  1.
         21    1    1    2  502  501  0.14106786760E-03  0.12956274659E-03  0.11274718270E-02  0.11436255372E-02  0.00000000000E+00 0. -1.
<mgrwt>
<rscale>  1 0.65260771E+03</rscale>
<asrwt>0</asrwt>
<pdfrwt beam="1">  1        1 0.38718388E+00 0.65260771E+03</pdfrwt>
<pdfrwt beam="2">0</pdfrwt>
<totfact> 0.15245361E+00</totfact>
</mgrwt>
</event>
<event>
 6    1  0.2603926E-003  0.6571748E+03  0.7818608E-02  0.9793409E-01
          1   -1    0    0  502    0  0.00000000000E+00  0.00000000000E+00  0.11437490352E+03  0.11437490352E+03  0.00000000000E+00 0.  1.
         13   -1    0    0    0    0 -0.00000000000E+00 -0.00000000000E+00 -0.10000000000E+04  0.10000000000E+04  0.00000000000E+00 0.  1.
    9000005    2    1    2  501    0 -0.67787786897E-01  0.14762607183E+01 -0.89193574488E+03  0.11078935283E+04  0.65717312270E+03 0.  0.
         13    1    3    3    0    0  0.18479589741E+03 -0.25924364418E+03 -0.31222496378E+03  0.44591615665E+03  0.00000000000E+00 0.  1.
          3    1    3    3  501    0 -0.18486368520E+03  0.26071990490E+03 -0.57971078110E+03  0.66197737170E+03  0.00000000000E+00 0.  1.
         21    1    1    2  502  501  0.67787786897E-01 -0.14762607183E+01  0.63106484090E+01  0.64813751808E+01  0.00000000000E+00 0. -1.
<mgrwt>
<rscale>  1 0.65717478E+03</rscale>
<asrwt>0</asrwt>
<pdfrwt beam="1">  1        1 0.41590962E+00 0.65717478E+03</pdfrwt>
<pdfrwt beam="2">0</pdfrwt>
<totfact> 0.11338929E+00</totfact>
</mgrwt>
</event>
<event>
 6    1  0.2603926E-003  0.6457971E+03  0.7818608E-02  0.9814698E-01
          1   -1    0    0  502    0  0.00000000000E+00  0.00000000000E+00  0.10434906802E+03  0.10434906802E+03  0.00000000000E+00 0.  1.
         13   -1    0    0    0    0 -0.00000000000E+00 -0.00000000000E+00 -0.10000000000E+04  0.10000000000E+04  0.00000000000E+00 0.  1.
    9000005    2    1    2  501    0  0.28882637933E-02  0.21176650933E-02 -0.89573648157E+03  0.11042634435E+04  0.64579711071E+03 0.  0.
         13    1    3    3    0    0 -0.31088160697E+03 -0.35923444504E+01 -0.59695642838E+03  0.67306556580E+03  0.00000000000E+00 0.  1.
          1    1    3    3  501    0  0.31088449523E+03  0.35944621155E+01 -0.29878005320E+03  0.43119787769E+03  0.00000000000E+00 0.  1.
         21    1    1    2  502  501 -0.28882637933E-02 -0.21176650933E-02  0.85549590443E-01  0.85624523345E-01  0.00000000000E+00 0.  1.
<mgrwt>
<rscale>  1 0.64579711E+03</rscale>
<asrwt>0</asrwt>
<pdfrwt beam="1">  1        1 0.37945196E+00 0.64579711E+03</pdfrwt>
<pdfrwt beam="2">0</pdfrwt>
<totfact> 0.16514085E+00</totfact>
</mgrwt>
</event>
<event>
 6    1  0.2603926E-003  0.6472953E+03  0.7818608E-02  0.9811868E-01
          1   -1    0    0  502    0  0.00000000000E+00  0.00000000000E+00  0.10476880710E+03  0.10476880710E+03  0.00000000000E+00 0.  1.
         13   -1    0    0    0    0 -0.00000000000E+00 -0.00000000000E+00 -0.10000000000E+04  0.10000000000E+04  0.00000000000E+00 0.  1.
    9000005    2    1    2  501    0  0.12603112325E-01 -0.70112244112E-02 -0.89524943962E+03  0.11047455490E+04  0.64729527167E+03 0.  0.
         13    1    3    3    0    0  0.12806526064E+03  0.20060096908E+03 -0.82196141391E+03  0.85572310109E+03  0.00000000000E+00 0.  1.
          1    1    3    3  501    0 -0.12805265753E+03 -0.20060798031E+03 -0.73288025710E+02  0.24902244793E+03  0.00000000000E+00 0.  1.
         21    1    1    2  502  501 -0.12603112325E-01  0.70112244112E-02  0.18246720802E-01  0.23258085219E-01  0.00000000000E+00 0. -1.
<mgrwt>
<rscale>  1 0.64729527E+03</rscale>
<asrwt>0</asrwt>
<pdfrwt beam="1">  1        1 0.38097828E+00 0.64729527E+03</pdfrwt>
<pdfrwt beam="2">0</pdfrwt>
<totfact> 0.16255476E+00</totfact>
</mgrwt>
</event>
<event>
 6    1  0.2603926E-003  0.6506102E+03  0.7818608E-02  0.9805635E-01
          1   -1    0    0  502    0  0.00000000000E+00  0.00000000000E+00  0.10582367825E+03  0.10582367825E+03  0.00000000000E+00 0.  1.
         13   -1    0    0    0    0 -0.00000000000E+00 -0.00000000000E+00 -0.10000000000E+04  0.10000000000E+04  0.00000000000E+00 0.  1.
    9000005    2    1    2  501    0 -0.62267002534E-04 -0.45379530320E-04 -0.89417658818E+03  0.11058234009E+04  0.65061019291E+03 0.  0.
         13    1    3    3    0    0 -0.17016789673E+03 -0.21963327953E+03 -0.15950951829E+03  0.32037349606E+03  0.00000000000E+00 0.  1.
          1    1    3    3  501    0  0.17016783447E+03  0.21963323415E+03 -0.73466706989E+03  0.78544990484E+03  0.00000000000E+00 0.  1.
         21    1    1    2  502  501  0.62267002515E-04  0.45379530317E-04  0.26643544119E-03  0.27735234937E-03  0.00000000000E+00 0. -1.
<mgrwt>
<rscale>  1 0.65061019E+03</rscale>
<asrwt>0</asrwt>
<pdfrwt beam="1">  1        1 0.38481419E+00 0.65061019E+03</pdfrwt>
<pdfrwt beam="2">0</pdfrwt>
<totfact> 0.15623746E+00</totfact>
</mgrwt>
</event>
<event>
 6    1  0.2603926E-003  0.4863626E+03  0.7818608E-02  0.1017401E+00
          1   -1    0    0  502    0  0.00000000000E+00  0.00000000000E+00  0.59139373300E+02  0.59139373300E+02  0.00000000000E+00 0.  1.
         13   -1    0    0    0    0 -0.00000000000E+00 -0.00000000000E+00 -0.10000000000E+04  0.10000000000E+04  0.00000000000E+00 0.  1.
    9000005    2    1    2  501    0  0.28162932903E-02  0.78818052133E-02 -0.94085100075E+03  0.10591266174E+04  0.48636260750E+03 0.  0.
         13    1    3    3    0    0 -0.13417538795E+03  0.13993485590E+03 -0.79012813914E+03  0.81356454869E+03  0.00000000000E+00 0.  1.
          3    1    3    3  501    0  0.13417820424E+03 -0.13992697409E+03 -0.15072286162E+03  0.24556206870E+03  0.00000000000E+00 0.  1.
         21    1    1    2  502  501 -0.28162932903E-02 -0.78818052133E-02 -0.96259455038E-02  0.12755907971E-01  0.00000000000E+00 0. -1.
<mgrwt>
<rscale>  1 0.48636261E+03</rscale>
<asrwt>0</asrwt>
<pdfrwt beam="1">  1        1 0.21505272E+00 0.48636261E+03</pdfrwt>
<pdfrwt beam="2">0</pdfrwt>
<totfact> 0.88165884E+00</totfact>
</mgrwt>
</event>
<event>
 6    1  0.2603926E-003  0.6433094E+03  0.7818608E-02  0.9819415E-01
          1   -1    0    0  502    0  0.00000000000E+00  0.00000000000E+00  0.10348493108E+03  0.10348493108E+03  0.00000000000E+00 0.  1.
         13   -1    0    0    0    0 -0.00000000000E+00 -0.00000000000E+00 -0.10000000000E+04  0.10000000000E+04  0.00000000000E+00 0.  1.
    9000005    2    1    2  501    0 -0.37180578440E-01 -0.19975846405E-01 -0.89651484675E+03  0.11034427235E+04  0.64330939045E+03 0.  0.
         13    1    3    3    0    0 -0.98753337997E+02  0.28734467368E+03 -0.62929607949E+03  0.69880808447E+03  0.00000000000E+00 0.  1.
          1    1    3    3  501    0  0.98716157419E+02 -0.28736464953E+03 -0.26721876727E+03  0.40463463904E+03  0.00000000000E+00 0.  1.
         21    1    1    2  502  501  0.37180578440E-01  0.19975846405E-01 -0.22216147714E-03  0.42207572880E-01  0.00000000000E+00 0.  1.
<mgrwt>
<rscale>  1 0.64330939E+03</rscale>
<asrwt>0</asrwt>
<pdfrwt beam="1">  1        1 0.37630963E+00 0.64330939E+03</pdfrwt>
<pdfrwt beam="2">0</pdfrwt>
<totfact> 0.17057023E+00</totfact>
</mgrwt>
</event>
<event>
 6    1  0.2603926E-003  0.6445508E+03  0.7818608E-02  0.9817058E-01
          1   -1    0    0  502    0  0.00000000000E+00  0.00000000000E+00  0.10396476607E+03  0.10396476607E+03  0.00000000000E+00 0.  1.
         13   -1    0    0    0    0 -0.00000000000E+00 -0.00000000000E+00 -0.10000000000E+04  0.10000000000E+04  0.00000000000E+00 0.  1.
    9000005    2    1    2  501    0  0.67957105641E-02 -0.62565105883E-02 -0.89613833419E+03  0.11038612528E+04  0.64455081370E+03 0.  0.
         13    1    3    3    0    0  0.21984656557E+03 -0.23542290758E+03 -0.46586911680E+03  0.56638369662E+03  0.00000000000E+00 0.  1.
          1    1    3    3  501    0 -0.21983976986E+03  0.23541665107E+03 -0.43026921738E+03  0.53747755622E+03  0.00000000000E+00 0.  1.
         21    1    1    2  502  501 -0.67957105641E-02  0.62565105883E-02  0.10310025432E+00  0.10351322644E+00  0.00000000000E+00 0.  1.
<mgrwt>
<rscale>  1 0.64455081E+03</rscale>
<asrwt>0</asrwt>
<pdfrwt beam="1">  1        1 0.37805449E+00 0.64455081E+03</pdfrwt>
<pdfrwt beam="2">0</pdfrwt>
<totfact> 0.16753907E+00</totfact>
</mgrwt>
</event>
<event>
 6    1  0.2603926E-003  0.6521476E+03  0.7818608E-02  0.9802758E-01
          1   -1    0    0  502    0  0.00000000000E+00  0.00000000000E+00  0.10633231922E+03  0.10633231922E+03  0.00000000000E+00 0.  1.
         13   -1    0    0    0    0 -0.00000000000E+00 -0.00000000000E+00 -0.10000000000E+04  0.10000000000E+04  0.00000000000E+00 0.  1.
    9000005    2    1    2  501    0 -0.17889872223E-02  0.23748848785E-03 -0.89367577282E+03  0.11063240284E+04  0.65214758211E+03 0.  0.
         13    1    3    3    0    0 -0.20158280212E+03  0.93041578525E+02 -0.41706936221E+02  0.22590225757E+03  0.00000000000E+00 0.  1.
          1    1    3    3  501    0  0.20158101313E+03 -0.93041341036E+02 -0.85196883660E+03  0.88042177082E+03  0.00000000000E+00 0.  1.
         21    1    1    2  502  501  0.17889872223E-02 -0.23748848785E-03  0.80920392577E-02  0.82908368342E-02  0.00000000000E+00 0.  1.
<mgrwt>
<rscale>  1 0.65214758E+03</rscale>
<asrwt>0</asrwt>
<pdfrwt beam="1">  1        1 0.38666379E+00 0.65214758E+03</pdfrwt>
<pdfrwt beam="2">0</pdfrwt>
<totfact> 0.15327715E+00</totfact>
</mgrwt>
</event>
<event>
 6    1  0.2603926E-003  0.6573235E+03  0.7818608E-02  0.9793133E-01
          1   -1    0    0  502    0  0.00000000000E+00  0.00000000000E+00  0.10896703587E+03  0.10896703587E+03  0.00000000000E+00 0.  1.
         13   -1    0    0    0    0 -0.00000000000E+00 -0.00000000000E+00 -0.10000000000E+04  0.10000000000E+04  0.00000000000E+00 0.  1.
    9000005    2    1    2  501    0 -0.13439073604E-01 -0.14146078515E-01 -0.89198134021E+03  0.11080184591E+04  0.65732350787E+03 0.  0.
         13    1    3    3    0    0 -0.94547255773E+01  0.28305414049E+03 -0.72706543617E+03  0.78027763441E+03  0.00000000000E+00 0.  1.
          3    1    3    3  501    0  0.94412865037E+01 -0.28306828657E+03 -0.16491590404E+03  0.32774082467E+03  0.00000000000E+00 0.  1.
         21    1    1    2  502  501  0.13439073604E-01  0.14146078515E-01  0.94837608682E+00  0.94857678776E+00  0.00000000000E+00 0.  1.
<mgrwt>
<rscale>  1 0.65732351E+03</rscale>
<asrwt>0</asrwt>
<pdfrwt beam="1">  1        1 0.39624460E+00 0.65732351E+03</pdfrwt>
<pdfrwt beam="2">0</pdfrwt>
<totfact> 0.13884773E+00</totfact>
</mgrwt>
</event>
<event>
 6    1  0.2603926E-003  0.6428946E+03  0.7818608E-02  0.9820204E-01
          1   -1    0    0  502    0  0.00000000000E+00  0.00000000000E+00  0.10332879249E+03  0.10332879249E+03  0.00000000000E+00 0.  1.
         13   -1    0    0    0    0 -0.00000000000E+00 -0.00000000000E+00 -0.10000000000E+04  0.10000000000E+04  0.00000000000E+00 0.  1.
    9000005    2    1    2  501    0 -0.40988774515E-04 -0.56471138151E-04 -0.89667164162E+03  0.11033283528E+04  0.64289456463E+03 0.  0.
         13    1    3    3    0    0 -0.29059380469E+03 -0.13590851497E+03 -0.41348028186E+03  0.52333720224E+03  0.00000000000E+00 0.  1.
          1    1    3    3  501    0  0.29059376370E+03  0.13590845850E+03 -0.48319135976E+03  0.57999115057E+03  0.00000000000E+00 0.  1.
         21    1    1    2  502  501  0.40988774513E-04  0.56471138143E-04  0.43410804117E-03  0.43968040722E-03  0.00000000000E+00 0.  1.
<mgrwt>
<rscale>  1 0.64289456E+03</rscale>
<asrwt>0</asrwt>
<pdfrwt beam="1">  1        1 0.37574186E+00 0.64289456E+03</pdfrwt>
<pdfrwt beam="2">0</pdfrwt>
<totfact> 0.17156814E+00</totfact>
</mgrwt>
</event>
<event>
 6    1  0.2603926E-003  0.6561214E+03  0.7818608E-02  0.9795360E-01
          1   -1    0    0  502    0  0.00000000000E+00  0.00000000000E+00  0.10762423077E+03  0.10762423077E+03  0.00000000000E+00 0.  1.
         13   -1    0    0    0    0 -0.00000000000E+00 -0.00000000000E+00 -0.10000000000E+04  0.10000000000E+04  0.00000000000E+00 0.  1.
    9000005    2    1    2  501    0 -0.43766480087E-03 -0.50786295780E-03 -0.89237582509E+03  0.11076235580E+04  0.65612143165E+03 0.  0.
         13    1    3    3    0    0  0.31663312393E+03  0.49059545580E+02 -0.56508206653E+03  0.64960073591E+03  0.00000000000E+00 0.  1.
          3    1    3    3  501    0 -0.31663356160E+03 -0.49060053443E+02 -0.32729375856E+03  0.45802282210E+03  0.00000000000E+00 0.  1.
         21    1    1    2  502  501  0.43766480086E-03  0.50786295780E-03  0.55852842066E-04  0.67275166428E-03  0.00000000000E+00 0. -1.
<mgrwt>
<rscale>  1 0.65612143E+03</rscale>
<asrwt>0</asrwt>
<pdfrwt beam="1">  1        1 0.39136166E+00 0.65612143E+03</pdfrwt>
<pdfrwt beam="2">0</pdfrwt>
<totfact> 0.14599380E+00</totfact>
</mgrwt>
</event>
<event>
 6    1  0.2603926E-003  0.6212958E+03  0.7818608E-02  0.9862183E-01
          1   -1    0    0  502    0  0.00000000000E+00  0.00000000000E+00  0.96659683284E+02  0.96659683284E+02  0.00000000000E+00 0.  1.
         13   -1    0    0    0    0 -0.00000000000E+00 -0.00000000000E+00 -0.10000000000E+04  0.10000000000E+04  0.00000000000E+00 0.  1.
    9000005    2    1    2  501    0 -0.51162708496E-03  0.85456656845E-02 -0.90349776737E+03  0.10965020001E+04  0.62129575920E+03 0.  0.
         13    1    3    3    0    0  0.35719147060E+02  0.22856747776E+03 -0.81765977645E+03  0.84975670599E+03  0.00000000000E+00 0.  1.
          1    1    3    3  501    0 -0.35719658687E+02 -0.22855893209E+03 -0.85837990926E+02  0.24674529407E+03  0.00000000000E+00 0.  1.
         21    1    1    2  502  501  0.51162708496E-03 -0.85456656845E-02  0.15745065863E+00  0.15768322697E+00  0.00000000000E+00 0. -1.
<mgrwt>
<rscale>  1 0.62129576E+03</rscale>
<asrwt>0</asrwt>
<pdfrwt beam="1">  1        1 0.35149050E+00 0.62129576E+03</pdfrwt>
<pdfrwt beam="2">0</pdfrwt>
<totfact> 0.21997103E+00</totfact>
</mgrwt>
</event>
<event>
 6    1  0.2603926E-003  0.6572980E+03  0.7818608E-02  0.9793181E-01
          1   -1    0    0  502    0  0.00000000000E+00  0.00000000000E+00  0.10801016274E+03  0.10801016274E+03  0.00000000000E+00 0.  1.
         13   -1    0    0    0    0 -0.00000000000E+00 -0.00000000000E+00 -0.10000000000E+04  0.10000000000E+04  0.00000000000E+00 0.  1.
    9000005    2    1    2  501    0 -0.63438791926E-05 -0.73653053505E-05 -0.89198984558E+03  0.11080101499E+04  0.65729795965E+03 0.  0.
         13    1    3    3    0    0 -0.10223019075E+03 -0.14911401814E+03 -0.90864067788E+03  0.92645231060E+03  0.00000000000E+00 0.  1.
          1    1    3    3  501    0  0.10223018440E+03  0.14911401077E+03  0.16650832301E+02  0.18155783935E+03  0.00000000000E+00 0.  1.
         21    1    1    2  502  501  0.63438792000E-05  0.73653053625E-05  0.83287786534E-05  0.12800823421E-04  0.00000000000E+00 0. -1.
<mgrwt>
<rscale>  1 0.65729796E+03</rscale>
<asrwt>0</asrwt>
<pdfrwt beam="1">  1        1 0.39276506E+00 0.65729796E+03</pdfrwt>
<pdfrwt beam="2">0</pdfrwt>
<totfact> 0.14388280E+00</totfact>
</mgrwt>
</event>
<event>
 6    1  0.2603926E-003  0.6505643E+03  0.7818608E-02  0.9805721E-01
          1   -1    0    0  502    0  0.00000000000E+00  0.00000000000E+00  0.10584725576E+03  0.10584725576E+03  0.00000000000E+00 0.  1.
         13   -1    0    0    0    0 -0.00000000000E+00 -0.00000000000E+00 -0.10000000000E+04  0.10000000000E+04  0.00000000000E+00 0.  1.
    9000005    2    1    2  501    0  0.79919839163E-03  0.61836822667E-05 -0.89419150909E+03  0.11058084827E+04  0.65056432842E+03 0.  0.
         13    1    3    3    0    0 -0.20587983805E+03 -0.55658935972E+02 -0.29616666178E+02  0.21531737455E+03  0.00000000000E+00 0.  1.
          3    1    3    3  501    0  0.20588063725E+03  0.55658942155E+02 -0.86457484291E+03  0.89049110812E+03  0.00000000000E+00 0.  1.
         21    1    1    2  502  501 -0.79919839161E-03 -0.61836822674E-05  0.38764851085E-01  0.38773089069E-01  0.00000000000E+00 0. -1.
<mgrwt>
<rscale>  1 0.65056433E+03</rscale>
<asrwt>0</asrwt>
<pdfrwt beam="1">  1        1 0.38489992E+00 0.65056433E+03</pdfrwt>
<pdfrwt beam="2">0</pdfrwt>
<totfact> 0.15610242E+00</totfact>
</mgrwt>
</event>
<event>
 6    1  0.2603926E-003  0.6164781E+03  0.7818608E-02  0.9871797E-01
          1   -1    0    0  502    0  0.00000000000E+00  0.00000000000E+00  0.95011520271E+02  0.95011520271E+02  0.00000000000E+00 0.  1.
         13   -1    0    0    0    0 -0.00000000000E+00 -0.00000000000E+00 -0.10000000000E+04  0.10000000000E+04  0.00000000000E+00 0.  1.
    9000005    2    1    2  501    0  0.72087207002E-04 -0.18005233709E-03 -0.90498862025E+03  0.10950112808E+04  0.61647814416E+03 0.  0.
         13    1    3    3    0    0  0.29177483702E+03 -0.35313297183E+02 -0.28746897293E+03  0.41111798169E+03  0.00000000000E+00 0.  1.
          1    1    3    3  501    0 -0.29177476493E+03  0.35313117131E+02 -0.61751964732E+03  0.68389329907E+03  0.00000000000E+00 0.  1.
         21    1    1    2  502  501 -0.72087206956E-04  0.18005233709E-03  0.14052167812E-03  0.23950313467E-03  0.00000000000E+00 0.  1.
<mgrwt>
<rscale>  1 0.61647814E+03</rscale>
<asrwt>0</asrwt>
<pdfrwt beam="1">  1        1 0.34549717E+00 0.61647814E+03</pdfrwt>
<pdfrwt beam="2">0</pdfrwt>
<totfact> 0.23379796E+00</totfact>
</mgrwt>
</event>
<event>
 6    1  0.2603926E-003  0.6510332E+03  0.7818608E-02  0.9804842E-01
          1   -1    0    0  502    0  0.00000000000E+00  0.00000000000E+00  0.10777392825E+03  0.10777392825E+03  0.00000000000E+00 0.  1.
         13   -1    0    0    0    0 -0.00000000000E+00 -0.00000000000E+00 -0.10000000000E+04  0.10000000000E+04  0.00000000000E+00 0.  1.
    9000005    2    1    2  501    0 -0.60463532709E+00  0.33684707149E+00 -0.89396559056E+03  0.11059017703E+04  0.65103284811E+03 0.  0.
         13    1    3    3    0    0 -0.11140129621E+03 -0.20133528029E+03 -0.83810091587E+03  0.86911408288E+03  0.00000000000E+00 0.  1.
          1    1    3    3  501    0  0.11079666088E+03  0.20167212736E+03 -0.55864674695E+02  0.23678768738E+03  0.00000000000E+00 0.  1.
         21    1    1    2  502  501  0.60463532709E+00 -0.33684707149E+00  0.17395188095E+01  0.18721579839E+01  0.00000000000E+00 0. -1.
<mgrwt>
<rscale>  1 0.65103322E+03</rscale>
<asrwt>0</asrwt>
<pdfrwt beam="1">  1        1 0.39190602E+00 0.65103322E+03</pdfrwt>
<pdfrwt beam="2">0</pdfrwt>
<totfact> 0.14532159E+00</totfact>
</mgrwt>
</event>
<event>
 6    1  0.2603926E-003  0.6486706E+03  0.7818608E-02  0.9809277E-01
          1   -1    0    0  502    0  0.00000000000E+00  0.00000000000E+00  0.10519501476E+03  0.10519501476E+03  0.00000000000E+00 0.  1.
         13   -1    0    0    0    0 -0.00000000000E+00 -0.00000000000E+00 -0.10000000000E+04  0.10000000000E+04  0.00000000000E+00 0.  1.
    9000005    2    1    2  501    0 -0.17680870045E-03 -0.23777674241E-03 -0.89480658917E+03  0.11051933837E+04  0.64867062777E+03 0.  0.
         13    1    3    3    0    0 -0.15225573465E+03 -0.70915836541E+02 -0.92013022667E+03  0.93533443144E+03  0.00000000000E+00 0.  1.
          1    1    3    3  501    0  0.15225555784E+03  0.70915598764E+02  0.25323637501E+02  0.16985895225E+03  0.00000000000E+00 0.  1.
         21    1    1    2  502  501  0.17680870044E-03  0.23777674241E-03  0.16039288592E-02  0.16310692448E-02  0.00000000000E+00 0.  1.
<mgrwt>
<rscale>  1 0.64867063E+03</rscale>
<asrwt>0</asrwt>
<pdfrwt beam="1">  1        1 0.38252813E+00 0.64867063E+03</pdfrwt>
<pdfrwt beam="2">0</pdfrwt>
<totfact> 0.15997257E+00</totfact>
</mgrwt>
</event>
<event>
 6    1  0.2603926E-003  0.6455945E+03  0.7818608E-02  0.9815081E-01
          1   -1    0    0  502    0  0.00000000000E+00  0.00000000000E+00  0.10452622358E+03  0.10452622358E+03  0.00000000000E+00 0.  1.
         13   -1    0    0    0    0 -0.00000000000E+00 -0.00000000000E+00 -0.10000000000E+04  0.10000000000E+04  0.00000000000E+00 0.  1.
    9000005    2    1    2  501    0 -0.53340043310E-02 -0.30981894289E-02 -0.89580190003E+03  0.11041980420E+04  0.64559451036E+03 0.  0.
         13    1    3    3    0    0  0.19693264397E+03 -0.13989118593E+03 -0.81411385746E+03  0.84919572719E+03  0.00000000000E+00 0.  1.
          1    1    3    3  501    0 -0.19693797797E+03  0.13988808774E+03 -0.81688042565E+02  0.25500231481E+03  0.00000000000E+00 0.  1.
         21    1    1    2  502  501  0.53340043311E-02  0.30981894289E-02  0.32812360930E+00  0.32818158596E+00  0.00000000000E+00 0.  1.
<mgrwt>
<rscale>  1 0.64559451E+03</rscale>
<asrwt>0</asrwt>
<pdfrwt beam="1">  1        1 0.38009616E+00 0.64559451E+03</pdfrwt>
<pdfrwt beam="2">0</pdfrwt>
<totfact> 0.16406981E+00</totfact>
</mgrwt>
</event>
<event>
 6    1  0.2603926E-003  0.6309450E+03  0.7818608E-02  0.9843206E-01
          1   -1    0    0  502    0  0.00000000000E+00  0.00000000000E+00  0.99526436593E+02  0.99526436593E+02  0.00000000000E+00 0.  1.
         13   -1    0    0    0    0 -0.00000000000E+00 -0.00000000000E+00 -0.10000000000E+04  0.10000000000E+04  0.00000000000E+00 0.  1.
    9000005    2    1    2  501    0 -0.28102918891E-02 -0.45182811878E-02 -0.90047478036E+03  0.10995209782E+04  0.63094496710E+03 0.  0.
         13    1    3    3    0    0 -0.24682510209E+03 -0.19642167743E+03 -0.45810470354E+03  0.55620502136E+03  0.00000000000E+00 0.  1.
          1    1    3    3  501    0  0.24682229180E+03  0.19641715915E+03 -0.44237007682E+03  0.54331595688E+03  0.00000000000E+00 0.  1.
         21    1    1    2  502  501  0.28102918891E-02  0.45182811878E-02  0.12169521473E-02  0.54583493771E-02  0.00000000000E+00 0. -1.
<mgrwt>
<rscale>  1 0.63094497E+03</rscale>
<asrwt>0</asrwt>
<pdfrwt beam="1">  1        1 0.36191508E+00 0.63094497E+03</pdfrwt>
<pdfrwt beam="2">0</pdfrwt>
<totfact> 0.19773195E+00</totfact>
</mgrwt>
</event>
<event>
 6    1  0.2603926E-003  0.6388923E+03  0.7818608E-02  0.9827848E-01
          1   -1    0    0  502    0  0.00000000000E+00  0.00000000000E+00  0.10333062191E+03  0.10333062191E+03  0.00000000000E+00 0.  1.
         13   -1    0    0    0    0 -0.00000000000E+00 -0.00000000000E+00 -0.10000000000E+04  0.10000000000E+04  0.00000000000E+00 0.  1.
    9000005    2    1    2  501    0  0.34204746014E+00  0.83694086280E+00 -0.89777657808E+03  0.11019011611E+04  0.63889167090E+03 0.  0.
         13    1    3    3    0    0  0.62318291527E+02  0.31293761570E+03 -0.41035766273E+03  0.51981432467E+03  0.00000000000E+00 0.  1.
          1    1    3    3  501    0 -0.61976244067E+02 -0.31210067483E+03 -0.48741891536E+03  0.58208683640E+03  0.00000000000E+00 0.  1.
         21    1    1    2  502  501 -0.34204746014E+00 -0.83694086280E+00  0.11071999955E+01  0.14294608434E+01  0.00000000000E+00 0. -1.
<mgrwt>
<rscale>  1 0.63889231E+03</rscale>
<asrwt>0</asrwt>
<pdfrwt beam="1">  1        1 0.37574851E+00 0.63889231E+03</pdfrwt>
<pdfrwt beam="2">0</pdfrwt>
<totfact> 0.17168265E+00</totfact>
</mgrwt>
</event>
<event>
 6    1  0.7031077E-003  0.6229394E+03  0.7818608E-02  0.9858925E-01
          1   -1    0    0  502    0  0.00000000000E+00  0.00000000000E+00  0.97013370590E+02  0.97013370590E+02  0.00000000000E+00 0.  1.
         13   -1    0    0    0    0 -0.00000000000E+00 -0.00000000000E+00 -0.10000000000E+04  0.10000000000E+04  0.00000000000E+00 0.  1.
    9000005    2    1    2  501    0 -0.52285812444E-05  0.52122254601E-05 -0.90298662606E+03  0.10970133625E+04  0.62293937957E+03 0.  0.
         13    1    3    3    0    0  0.43504670179E+02  0.30793630233E+03 -0.48178843583E+03  0.57344356263E+03  0.00000000000E+00 0.  1.
          1    1    3    3  501    0 -0.43504675407E+02 -0.30793629712E+03 -0.42119819023E+03  0.52356979985E+03  0.00000000000E+00 0.  1.
         21    1    1    2  502  501  0.52285812409E-05 -0.52122254948E-05 -0.33491524416E-05  0.81069216401E-05  0.00000000000E+00 0. -1.
<mgrwt>
<rscale>  1 0.62293938E+03</rscale>
<asrwt>0</asrwt>
<pdfrwt beam="1">  1        1 0.35277664E+00 0.62293938E+03</pdfrwt>
<pdfrwt beam="2">0</pdfrwt>
<totfact> 0.21708471E+00</totfact>
</mgrwt>
</event>
<event>
 6    1  0.2603926E-003  0.6451901E+03  0.7818608E-02  0.9815847E-01
          1   -1    0    0  502    0  0.00000000000E+00  0.00000000000E+00  0.10406781627E+03  0.10406781627E+03  0.00000000000E+00 0.  1.
         13   -1    0    0    0    0 -0.00000000000E+00 -0.00000000000E+00 -0.10000000000E+04  0.10000000000E+04  0.00000000000E+00 0.  1.
    9000005    2    1    2  501    0 -0.29278398529E-04 -0.12922840824E-04 -0.89593242058E+03  0.11040675773E+04  0.64519013704E+03 0.  0.
         13    1    3    3    0    0 -0.29858466452E+03  0.12152791187E+03 -0.42730707594E+03  0.53526925225E+03  0.00000000000E+00 0.  1.
          3    1    3    3  501    0  0.29858463525E+03 -0.12152792479E+03 -0.46862534464E+03  0.56879832502E+03  0.00000000000E+00 0.  1.
         21    1    1    2  502  501  0.29278398519E-04  0.12922840818E-04  0.23685370766E-03  0.23900607370E-03  0.00000000000E+00 0. -1.
<mgrwt>
<rscale>  1 0.64519014E+03</rscale>
<asrwt>0</asrwt>
<pdfrwt beam="1">  1        1 0.37842922E+00 0.64519014E+03</pdfrwt>
<pdfrwt beam="2">0</pdfrwt>
<totfact> 0.16688341E+00</totfact>
</mgrwt>
</event>
<event>
 6    1  0.2603926E-003  0.6481720E+03  0.7818608E-02  0.9810215E-01
          1   -1    0    0  502    0  0.00000000000E+00  0.00000000000E+00  0.10503537756E+03  0.10503537756E+03  0.00000000000E+00 0.  1.
         13   -1    0    0    0    0 -0.00000000000E+00 -0.00000000000E+00 -0.10000000000E+04  0.10000000000E+04  0.00000000000E+00 0.  1.
    9000005    2    1    2  501    0 -0.13427926753E-02  0.77710366591E-03 -0.89496807399E+03  0.11050315934E+04  0.64817202103E+03 0.  0.
         13    1    3    3    0    0 -0.65841393664E+02  0.17854712638E+03 -0.89471852792E+03  0.91473242517E+03  0.00000000000E+00 0.  1.
          1    1    3    3  501    0  0.65840050871E+02 -0.17854634927E+03 -0.24954607086E+00  0.19029916818E+03  0.00000000000E+00 0.  1.
         21    1    1    2  502  501  0.13427926754E-02 -0.77710366591E-03  0.34515524136E-02  0.37842035279E-02  0.00000000000E+00 0. -1.
<mgrwt>
<rscale>  1 0.64817202E+03</rscale>
<asrwt>0</asrwt>
<pdfrwt beam="1">  1        1 0.38194763E+00 0.64817202E+03</pdfrwt>
<pdfrwt beam="2">0</pdfrwt>
<totfact> 0.16093464E+00</totfact>
</mgrwt>
</event>
<event>
 6    1  0.2603926E-003  0.6617268E+03  0.7818608E-02  0.9785020E-01
          1   -1    0    0  502    0  0.00000000000E+00  0.00000000000E+00  0.10948971032E+03  0.10948971032E+03  0.00000000000E+00 0.  1.
         13   -1    0    0    0    0 -0.00000000000E+00 -0.00000000000E+00 -0.10000000000E+04  0.10000000000E+04  0.00000000000E+00 0.  1.
    9000005    2    1    2  501    0 -0.90415318482E-03 -0.15128677811E-02 -0.89052938140E+03  0.11094705374E+04  0.66172675196E+03 0.  0.
         13    1    3    3    0    0  0.20912317802E+03 -0.19978792687E+02 -0.16693622625E+02  0.21073759223E+03  0.00000000000E+00 0.  1.
          3    1    3    3  501    0 -0.20912408217E+03  0.19977279820E+02 -0.87383575878E+03  0.89873294519E+03  0.00000000000E+00 0.  1.
         21    1    1    2  502  501  0.90415318482E-03  0.15128677811E-02  0.19091725896E-01  0.19172904308E-01  0.00000000000E+00 0. -1.
<mgrwt>
<rscale>  1 0.66172675E+03</rscale>
<asrwt>0</asrwt>
<pdfrwt beam="1">  1        1 0.39814524E+00 0.66172675E+03</pdfrwt>
<pdfrwt beam="2">0</pdfrwt>
<totfact> 0.13605661E+00</totfact>
</mgrwt>
</event>
<event>
 6    1  0.2603926E-003  0.6441399E+03  0.7818608E-02  0.9817838E-01
          1   -1    0    0  502    0  0.00000000000E+00  0.00000000000E+00  0.10372910169E+03  0.10372910169E+03  0.00000000000E+00 0.  1.
         13   -1    0    0    0    0 -0.00000000000E+00 -0.00000000000E+00 -0.10000000000E+04  0.10000000000E+04  0.00000000000E+00 0.  1.
    9000005    2    1    2  501    0 -0.27980572099E-04 -0.11203531307E-03 -0.89627088927E+03  0.11037289859E+04  0.64413986624E+03 0.  0.
         13    1    3    3    0    0  0.20534460877E+03 -0.23839576865E+03 -0.33028864012E+03  0.45616832053E+03  0.00000000000E+00 0.  1.
          3    1    3    3  501    0 -0.20534463675E+03  0.23839565661E+03 -0.56598224915E+03  0.64756066533E+03  0.00000000000E+00 0.  1.
         21    1    1    2  502  501  0.27980572106E-04  0.11203531309E-03 -0.90341009609E-05  0.11582935196E-03  0.00000000000E+00 0.  1.
<mgrwt>
<rscale>  1 0.64413987E+03</rscale>
<asrwt>0</asrwt>
<pdfrwt beam="1">  1        1 0.37719753E+00 0.64413987E+03</pdfrwt>
<pdfrwt beam="2">0</pdfrwt>
<totfact> 0.16901515E+00</totfact>
</mgrwt>
</event>
<event>
 6    1  0.2603926E-003  0.6475457E+03  0.7818608E-02  0.9811395E-01
          1   -1    0    0  502    0  0.00000000000E+00  0.00000000000E+00  0.10484323513E+03  0.10484323513E+03  0.00000000000E+00 0.  1.
         13   -1    0    0    0    0 -0.00000000000E+00 -0.00000000000E+00 -0.10000000000E+04  0.10000000000E+04  0.00000000000E+00 0.  1.
    9000005    2    1    2  501    0 -0.18747771831E-03  0.16104000449E-03 -0.89517114839E+03  0.11048288495E+04  0.64754567542E+03 0.  0.
         13    1    3    3    0    0 -0.84744198876E+02 -0.20596435228E+03 -0.84854101886E+03  0.87728259662E+03  0.00000000000E+00 0.  1.
          1    1    3    3  501    0  0.84744011398E+02  0.20596451332E+03 -0.46630129528E+02  0.22754625287E+03  0.00000000000E+00 0.  1.
         21    1    1    2  502  501  0.18747771831E-03 -0.16104000448E-03  0.14383513260E-01  0.14385636430E-01  0.00000000000E+00 0.  1.
<mgrwt>
<rscale>  1 0.64754568E+03</rscale>
<asrwt>0</asrwt>
<pdfrwt beam="1">  1        1 0.38124893E+00 0.64754568E+03</pdfrwt>
<pdfrwt beam="2">0</pdfrwt>
<totfact> 0.16210069E+00</totfact>
</mgrwt>
</event>
<event>
 6    1  0.2603926E-003  0.6471903E+03  0.7818608E-02  0.9812066E-01
          3   -1    0    0  502    0  0.00000000000E+00  0.00000000000E+00  0.10471384858E+03  0.10471384858E+03  0.00000000000E+00 0.  1.
         13   -1    0    0    0    0 -0.00000000000E+00 -0.00000000000E+00 -0.10000000000E+04  0.10000000000E+04  0.00000000000E+00 0.  1.
    9000005    2    1    2  501    0  0.14198204610E-04  0.20659650772E-04 -0.89528615446E+03  0.11047138233E+04  0.64719033762E+03 0.  0.
         13    1    3    3    0    0 -0.25942769210E+03  0.11257108710E+03 -0.17916578164E+03  0.33477657384E+03  0.00000000000E+00 0.  1.
          3    1    3    3  501    0  0.25942770630E+03 -0.11257106644E+03 -0.71612037282E+03  0.76993724950E+03  0.00000000000E+00 0.  1.
         21    1    1    2  502  501 -0.14198204612E-04 -0.20659650770E-04  0.30404297220E-05  0.25251819678E-04  0.00000000000E+00 0. -1.
<mgrwt>
<rscale>  1 0.64719034E+03</rscale>
<asrwt>0</asrwt>
<pdfrwt beam="1">  1        3 0.38077843E+00 0.64719034E+03</pdfrwt>
<pdfrwt beam="2">0</pdfrwt>
<totfact> 0.74802783E-02</totfact>
</mgrwt>
</event>
<event>
 6    1  0.2603926E-003  0.6877206E+03  0.7818608E-02  0.9738465E-01
          1   -1    0    0  502    0  0.00000000000E+00  0.00000000000E+00  0.11828021636E+03  0.11828021636E+03  0.00000000000E+00 0.  1.
         13   -1    0    0    0    0 -0.00000000000E+00 -0.00000000000E+00 -0.10000000000E+04  0.10000000000E+04  0.00000000000E+00 0.  1.
    9000005    2    1    2  501    0 -0.10378055212E-01  0.11085852794E-01 -0.88175849670E+03  0.11182386315E+04  0.68772057568E+03 0.  0.
         13    1    3    3    0    0  0.26829185570E+03 -0.14600543716E+03 -0.69764320680E+03  0.76158003619E+03  0.00000000000E+00 0.  1.
          1    1    3    3  501    0 -0.26830223375E+03  0.14601652301E+03 -0.18411528990E+03  0.35665859530E+03  0.00000000000E+00 0.  1.
         21    1    1    2  502  501  0.10378055211E-01 -0.11085852794E-01  0.38713064282E-01  0.41584871146E-01  0.00000000000E+00 0. -1.
<mgrwt>
<rscale>  1 0.68772058E+03</rscale>
<asrwt>0</asrwt>
<pdfrwt beam="1">  1        1 0.43011078E+00 0.68772058E+03</pdfrwt>
<pdfrwt beam="2">0</pdfrwt>
<totfact> 0.97227609E-01</totfact>
</mgrwt>
</event>
<event>
 6    1  0.2603926E-003  0.5854642E+03  0.7818608E-02  0.9936031E-01
          1   -1    0    0  502    0  0.00000000000E+00  0.00000000000E+00  0.94371812801E+02  0.94371812801E+02  0.00000000000E+00 0.  1.
         13   -1    0    0    0    0 -0.00000000000E+00 -0.00000000000E+00 -0.10000000000E+04  0.10000000000E+04  0.00000000000E+00 0.  1.
    9000005    2    1    2  501    0  0.25233874467E+01  0.10193633915E+00 -0.91410810896E+03  0.10855238216E+04  0.58545875560E+03 0.  0.
         13    1    3    3    0    0  0.17567316200E+03 -0.16621559103E+03 -0.76636402120E+03  0.80361837680E+03  0.00000000000E+00 0.  1.
          3    1    3    3  501    0 -0.17314977455E+03  0.16631752737E+03 -0.14774408777E+03  0.28190544480E+03  0.00000000000E+00 0.  1.
         21    1    1    2  502  501 -0.25233874467E+01 -0.10193633915E+00  0.84799217634E+01  0.88479912034E+01  0.00000000000E+00 0. -1.
<mgrwt>
<rscale>  1 0.58546420E+03</rscale>
<asrwt>0</asrwt>
<pdfrwt beam="1">  1        1 0.34317095E+00 0.58546420E+03</pdfrwt>
<pdfrwt beam="2">0</pdfrwt>
<totfact> 0.24067601E+00</totfact>
</mgrwt>
</event>
<event>
 6    1  0.2603926E-003  0.6528605E+03  0.7818608E-02  0.9801426E-01
          1   -1    0    0  502    0  0.00000000000E+00  0.00000000000E+00  0.10704817093E+03  0.10704817093E+03  0.00000000000E+00 0.  1.
         13   -1    0    0    0    0 -0.00000000000E+00 -0.00000000000E+00 -0.10000000000E+04  0.10000000000E+04  0.00000000000E+00 0.  1.
    9000005    2    1    2  501    0  0.26298233677E-01 -0.40170834197E-01 -0.89344199053E+03  0.11065556635E+04  0.65286050862E+03 0.  0.
         13    1    3    3    0    0  0.85948452359E+02 -0.13776932933E+03 -0.92672698257E+03  0.94084559031E+03  0.00000000000E+00 0.  1.
          3    1    3    3  501    0 -0.85922154125E+02  0.13772915849E+03  0.33284992043E+02  0.16571007321E+03  0.00000000000E+00 0.  1.
         21    1    1    2  502  501 -0.26298233677E-01  0.40170834197E-01  0.49016145683E+00  0.49250740783E+00  0.00000000000E+00 0.  1.
<mgrwt>
<rscale>  1 0.65286051E+03</rscale>
<asrwt>0</asrwt>
<pdfrwt beam="1">  1        1 0.38926690E+00 0.65286051E+03</pdfrwt>
<pdfrwt beam="2">0</pdfrwt>
<totfact> 0.14924111E+00</totfact>
</mgrwt>
</event>
<event>
 6    1  0.2603926E-003  0.6472858E+03  0.7818608E-02  0.9811886E-01
          1   -1    0    0  502    0  0.00000000000E+00  0.00000000000E+00  0.10488674510E+03  0.10488674510E+03  0.00000000000E+00 0.  1.
         13   -1    0    0    0    0 -0.00000000000E+00 -0.00000000000E+00 -0.10000000000E+04  0.10000000000E+04  0.00000000000E+00 0.  1.
    9000005    2    1    2  501    0  0.15356835558E+00  0.90639375876E-01 -0.89519063139E+03  0.11046923593E+04  0.64728580262E+03 0.  0.
         13    1    3    3    0    0  0.24131144541E+03 -0.17039231157E+03 -0.67342064069E+03  0.73536393224E+03  0.00000000000E+00 0.  1.
          3    1    3    3  501    0 -0.24115787705E+03  0.17048295095E+03 -0.22176999069E+03  0.36932842701E+03  0.00000000000E+00 0.  1.
         21    1    1    2  502  501 -0.15356835558E+00 -0.90639375876E-01  0.77376486039E-01  0.19438584539E+00  0.00000000000E+00 0. -1.
<mgrwt>
<rscale>  1 0.64728583E+03</rscale>
<asrwt>0</asrwt>
<pdfrwt beam="1">  1        1 0.38140715E+00 0.64728583E+03</pdfrwt>
<pdfrwt beam="2">0</pdfrwt>
<totfact> 0.16184790E+00</totfact>
</mgrwt>
</event>
<event>
 6    1  0.2603926E-003  0.6673009E+03  0.7818608E-02  0.9774846E-01
          3   -1    0    0  502    0  0.00000000000E+00  0.00000000000E+00  0.11416539119E+03  0.11416539119E+03  0.00000000000E+00 0.  1.
         13   -1    0    0    0    0 -0.00000000000E+00 -0.00000000000E+00 -0.10000000000E+04  0.10000000000E+04  0.00000000000E+00 0.  1.
    9000005    2    1    2  501    0  0.26499886745E+01  0.42561054200E+01 -0.88595915228E+03  0.11091501759E+04  0.66728206653E+03 0.  0.
         13    1    3    3    0    0  0.94299776038E+02 -0.31339496692E+03 -0.53363953796E+03  0.62600320249E+03  0.00000000000E+00 0.  1.
          3    1    3    3  501    0 -0.91649787364E+02  0.31765107234E+03 -0.35231961432E+03  0.48314697341E+03  0.00000000000E+00 0.  1.
         21    1    1    2  502  501 -0.26499886745E+01 -0.42561054200E+01  0.12454347058E+00  0.50152152892E+01  0.00000000000E+00 0. -1.
<mgrwt>
<rscale>  1 0.66730090E+03</rscale>
<asrwt>0</asrwt>
<pdfrwt beam="1">  1        3 0.41514775E+00 0.66730090E+03</pdfrwt>
<pdfrwt beam="2">0</pdfrwt>
<totfact> 0.49232632E-02</totfact>
</mgrwt>
</event>
<event>
 6    1  0.2603926E-003  0.6440069E+03  0.7818608E-02  0.9818090E-01
          1   -1    0    0  502    0  0.00000000000E+00  0.00000000000E+00  0.10852924962E+03  0.10852924962E+03  0.00000000000E+00 0.  1.
         13   -1    0    0    0    0 -0.00000000000E+00 -0.00000000000E+00 -0.10000000000E+04  0.10000000000E+04  0.00000000000E+00 0.  1.
    9000005    2    1    2  501    0  0.10425817008E+01 -0.54890677208E+00 -0.89623454761E+03  0.11036219042E+04  0.64400586550E+03 0.  0.
         13    1    3    3    0    0  0.29701243550E+03 -0.11767704978E+03 -0.37236582921E+03  0.49063284200E+03  0.00000000000E+00 0.  1.
          1    1    3    3  501    0 -0.29596985380E+03  0.11712814301E+03 -0.52386871840E+03  0.61298906218E+03  0.00000000000E+00 0.  1.
         21    1    1    2  502  501 -0.10425817008E+01  0.54890677208E+00  0.47637972240E+01  0.49073454371E+01  0.00000000000E+00 0. -1.
<mgrwt>
<rscale>  1 0.64400694E+03</rscale>
<asrwt>0</asrwt>
<pdfrwt beam="1">  1        1 0.39465265E+00 0.64400694E+03</pdfrwt>
<pdfrwt beam="2">0</pdfrwt>
<totfact> 0.14148402E+00</totfact>
</mgrwt>
</event>
<event>
 6    1  0.2603926E-003  0.6473624E+03  0.7818608E-02  0.9811741E-01
          1   -1    0    0  502    0  0.00000000000E+00  0.00000000000E+00  0.10478055190E+03  0.10478055190E+03  0.00000000000E+00 0.  1.
         13   -1    0    0    0    0 -0.00000000000E+00 -0.00000000000E+00 -0.10000000000E+04  0.10000000000E+04  0.00000000000E+00 0.  1.
    9000005    2    1    2  501    0  0.84397344426E-03  0.20761480053E-03 -0.89523046596E+03  0.11047694998E+04  0.64736238735E+03 0.  0.
         13    1    3    3    0    0 -0.15472595773E+03  0.10739395277E+03  0.16243006527E+01  0.18835132450E+03  0.00000000000E+00 0.  1.
          1    1    3    3  501    0  0.15472680171E+03 -0.10739374515E+03 -0.89685476661E+03  0.91641817532E+03  0.00000000000E+00 0.  1.
         21    1    1    2  502  501 -0.84397344427E-03 -0.20761480054E-03  0.11017860569E-01  0.11052087884E-01  0.00000000000E+00 0.  1.
<mgrwt>
<rscale>  1 0.64736239E+03</rscale>
<asrwt>0</asrwt>
<pdfrwt beam="1">  1        1 0.38102099E+00 0.64736239E+03</pdfrwt>
<pdfrwt beam="2">0</pdfrwt>
<totfact> 0.16248220E+00</totfact>
</mgrwt>
</event>
<event>
 6    1  0.2603926E-003  0.6347625E+03  0.7818608E-02  0.9835799E-01
          1   -1    0    0  502    0  0.00000000000E+00  0.00000000000E+00  0.10083341651E+03  0.10083341651E+03  0.00000000000E+00 0.  1.
         13   -1    0    0    0    0 -0.00000000000E+00 -0.00000000000E+00 -0.10000000000E+04  0.10000000000E+04  0.00000000000E+00 0.  1.
    9000005    2    1    2  501    0  0.29059020063E-02  0.15271480706E-02 -0.89926910509E+03  0.11007308424E+04  0.63476252563E+03 0.  0.
         13    1    3    3    0    0 -0.30211550537E+03 -0.97179056660E+02 -0.44355257115E+03  0.54539566465E+03  0.00000000000E+00 0.  1.
          3    1    3    3  501    0  0.30211841127E+03  0.97180583808E+02 -0.45571653394E+03  0.55533517772E+03  0.00000000000E+00 0.  1.
         21    1    1    2  502  501 -0.29059020063E-02 -0.15271480706E-02  0.10252160515E+00  0.10257414865E+00  0.00000000000E+00 0.  1.
<mgrwt>
<rscale>  1 0.63476253E+03</rscale>
<asrwt>0</asrwt>
<pdfrwt beam="1">  1        1 0.36666774E+00 0.63476253E+03</pdfrwt>
<pdfrwt beam="2">0</pdfrwt>
<totfact> 0.18834523E+00</totfact>
</mgrwt>
</event>
<event>
 6    1  0.2603926E-003  0.6318531E+03  0.7818608E-02  0.9841439E-01
          1   -1    0    0  502    0  0.00000000000E+00  0.00000000000E+00  0.99809785222E+02  0.99809785222E+02  0.00000000000E+00 0.  1.
         13   -1    0    0    0    0 -0.00000000000E+00 -0.00000000000E+00 -0.10000000000E+04  0.10000000000E+04  0.00000000000E+00 0.  1.
    9000005    2    1    2  501    0 -0.41308170580E-04 -0.89823739131E-05 -0.90019041124E+03  0.10998095843E+04  0.63185310408E+03 0.  0.
         13    1    3    3    0    0 -0.18435604176E+03 -0.20004175573E+03 -0.72970963622E+03  0.77876826294E+03  0.00000000000E+00 0.  1.
          1    1    3    3  501    0  0.18435600045E+03  0.20004174675E+03 -0.17048077502E+03  0.32104132132E+03  0.00000000000E+00 0.  1.
         21    1    1    2  502  501  0.41308170587E-04  0.89823739106E-05  0.19646436455E-03  0.20096092789E-03  0.00000000000E+00 0.  1.
<mgrwt>
<rscale>  1 0.63185310E+03</rscale>
<asrwt>0</asrwt>
<pdfrwt beam="1">  1        1 0.36294544E+00 0.63185310E+03</pdfrwt>
<pdfrwt beam="2">0</pdfrwt>
<totfact> 0.19565677E+00</totfact>
</mgrwt>
</event>
<event>
 6    1  0.2603926E-003  0.6390464E+03  0.7818608E-02  0.9827553E-01
          1   -1    0    0  502    0  0.00000000000E+00  0.00000000000E+00  0.10209508415E+03  0.10209508415E+03  0.00000000000E+00 0.  1.
         13   -1    0    0    0    0 -0.00000000000E+00 -0.00000000000E+00 -0.10000000000E+04  0.10000000000E+04  0.00000000000E+00 0.  1.
    9000005    2    1    2  501    0 -0.82308769436E-05 -0.93546759672E-06 -0.89790491983E+03  0.11020950750E+04  0.63904640614E+03 0.  0.
         13    1    3    3    0    0  0.23846367286E+03  0.13041339260E+03 -0.15922850523E+03  0.31500205257E+03  0.00000000000E+00 0.  1.
          1    1    3    3  501    0 -0.23846368109E+03 -0.13041339354E+03 -0.73867641460E+03  0.78709302239E+03  0.00000000000E+00 0.  1.
         21    1    1    2  502  501  0.82308769532E-05  0.93546760436E-06  0.39811239374E-05  0.91908532173E-05  0.00000000000E+00 0.  1.
<mgrwt>
<rscale>  1 0.63904641E+03</rscale>
<asrwt>0</asrwt>
<pdfrwt beam="1">  1        1 0.37125563E+00 0.63904641E+03</pdfrwt>
<pdfrwt beam="2">0</pdfrwt>
<totfact> 0.17967016E+00</totfact>
</mgrwt>
</event>
<event>
 6    1  0.2806607E-003  0.6581922E+03  0.7818608E-02  0.9791527E-01
          1   -1    0    0  502    0  0.00000000000E+00  0.00000000000E+00  0.10830430294E+03  0.10830430294E+03  0.00000000000E+00 0.  1.
         13   -1    0    0    0    0 -0.00000000000E+00 -0.00000000000E+00 -0.10000000000E+04  0.10000000000E+04  0.00000000000E+00 0.  1.
    9000005    2    1    2  501    0 -0.72357854265E-04  0.66917381787E-04 -0.89169569481E+03  0.11083042044E+04  0.65819221907E+03 0.  0.
         13    1    3    3    0    0 -0.27130856581E+03 -0.16592007820E+03 -0.58839490442E+03  0.66883957253E+03  0.00000000000E+00 0.  1.
          1    1    3    3  501    0  0.27130849345E+03  0.16592014512E+03 -0.30330079039E+03  0.43946463182E+03  0.00000000000E+00 0.  1.
         21    1    1    2  502  501  0.72357854244E-04 -0.66917381796E-04 -0.22573801631E-05  0.98583420627E-04  0.00000000000E+00 0. -1.
<mgrwt>
<rscale>  1 0.65819222E+03</rscale>
<asrwt>0</asrwt>
<pdfrwt beam="1">  1        1 0.39383466E+00 0.65819222E+03</pdfrwt>
<pdfrwt beam="2">0</pdfrwt>
<totfact> 0.14229340E+00</totfact>
</mgrwt>
</event>
<event>
 6    1  0.2603926E-003  0.6478703E+03  0.7818608E-02  0.9810784E-01
          3   -1    0    0  502    0  0.00000000000E+00  0.00000000000E+00  0.10493500760E+03  0.10493500760E+03  0.00000000000E+00 0.  1.
         13   -1    0    0    0    0 -0.00000000000E+00 -0.00000000000E+00 -0.10000000000E+04  0.10000000000E+04  0.00000000000E+00 0.  1.
    9000005    2    1    2  501    0 -0.11811951128E-03  0.20151158665E-04 -0.89506602282E+03  0.11049339702E+04  0.64787027511E+03 0.  0.
         13    1    3    3    0    0 -0.29607910754E+03  0.12573887879E+03 -0.38234630088E+03  0.49966168290E+03  0.00000000000E+00 0.  1.
          3    1    3    3  501    0  0.29607898942E+03 -0.12573885864E+03 -0.51271972194E+03  0.60527228734E+03  0.00000000000E+00 0.  1.
         21    1    1    2  502  501  0.11811951123E-03 -0.20151158669E-04  0.10304183363E-02  0.10373621528E-02  0.00000000000E+00 0. -1.
<mgrwt>
<rscale>  1 0.64787028E+03</rscale>
<asrwt>0</asrwt>
<pdfrwt beam="1">  1        3 0.38158265E+00 0.64787028E+03</pdfrwt>
<pdfrwt beam="2">0</pdfrwt>
<totfact> 0.74066658E-02</totfact>
</mgrwt>
</event>
<event>
 6    1  0.2603926E-003  0.6410118E+03  0.7818608E-02  0.9823793E-01
          1   -1    0    0  502    0  0.00000000000E+00  0.00000000000E+00  0.10272492710E+03  0.10272492710E+03  0.00000000000E+00 0.  1.
         13   -1    0    0    0    0 -0.00000000000E+00 -0.00000000000E+00 -0.10000000000E+04  0.10000000000E+04  0.00000000000E+00 0.  1.
    9000005    2    1    2  501    0  0.43041554221E-04  0.17227828783E-03 -0.89727597255E+03  0.11027240101E+04  0.64101175614E+03 0.  0.
         13    1    3    3    0    0 -0.19044409022E+03 -0.12862907545E+03 -0.64318024468E+02  0.23864450302E+03  0.00000000000E+00 0.  1.
          1    1    3    3  501    0  0.19044413326E+03  0.12862924773E+03 -0.83295794808E+03  0.86407950707E+03  0.00000000000E+00 0.  1.
         21    1    1    2  502  501 -0.43041554236E-04 -0.17227828783E-03  0.89965319620E-03  0.91701050009E-03  0.00000000000E+00 0. -1.
<mgrwt>
<rscale>  1 0.64101176E+03</rscale>
<asrwt>0</asrwt>
<pdfrwt beam="1">  1        1 0.37354598E+00 0.64101176E+03</pdfrwt>
<pdfrwt beam="2">0</pdfrwt>
<totfact> 0.17548923E+00</totfact>
</mgrwt>
</event>
<event>
 6    1  0.2603926E-003  0.5568553E+03  0.7818608E-02  0.9999195E-01
          1   -1    0    0  502    0  0.00000000000E+00  0.00000000000E+00  0.77770761076E+02  0.77770761076E+02  0.00000000000E+00 0.  1.
         13   -1    0    0    0    0 -0.00000000000E+00 -0.00000000000E+00 -0.10000000000E+04  0.10000000000E+04  0.00000000000E+00 0.  1.
    9000005    2    1    2  501    0  0.12835425227E-01  0.10811697289E+00 -0.92246517573E+03  0.10775109146E+04  0.55685524038E+03 0.  0.
         13    1    3    3    0    0  0.18886689395E+03  0.16540788830E+03 -0.22819442301E+03  0.33926857773E+03  0.00000000000E+00 0.  1.
          3    1    3    3  501    0 -0.18885405853E+03 -0.16529977133E+03 -0.69427075272E+03  0.73824233684E+03  0.00000000000E+00 0.  1.
         21    1    1    2  502  501 -0.12835425227E-01 -0.10811697289E+00  0.23593680632E+00  0.25984650188E+00  0.00000000000E+00 0. -1.
<mgrwt>
<rscale>  1 0.55685525E+03</rscale>
<asrwt>0</asrwt>
<pdfrwt beam="1">  1        1 0.28280336E+00 0.55685525E+03</pdfrwt>
<pdfrwt beam="2">0</pdfrwt>
<totfact> 0.44105203E+00</totfact>
</mgrwt>
</event>
<event>
 6    1  0.2603926E-003  0.6671618E+03  0.7818608E-02  0.9775099E-01
          1   -1    0    0  502    0  0.00000000000E+00  0.00000000000E+00  0.11130662203E+03  0.11130662203E+03  0.00000000000E+00 0.  1.
         13   -1    0    0    0    0 -0.00000000000E+00 -0.00000000000E+00 -0.10000000000E+04  0.10000000000E+04  0.00000000000E+00 0.  1.
    9000005    2    1    2  501    0  0.80625647769E-04  0.20152447218E-02 -0.88872374437E+03  0.11112761887E+04  0.66716180483E+03 0.  0.
         13    1    3    3    0    0  0.17726933676E+03 -0.98104784049E+02 -0.88577245793E+03  0.90864834432E+03  0.00000000000E+00 0.  1.
          3    1    3    3  501    0 -0.17726925614E+03  0.98106799293E+02 -0.29512864431E+01  0.20262784441E+03  0.00000000000E+00 0.  1.
         21    1    1    2  502  501 -0.80625647788E-04 -0.20152447218E-02  0.30366402157E-01  0.30433305633E-01  0.00000000000E+00 0. -1.
<mgrwt>
<rscale>  1 0.66716180E+03</rscale>
<asrwt>0</asrwt>
<pdfrwt beam="1">  1        1 0.40475221E+00 0.66716180E+03</pdfrwt>
<pdfrwt beam="2">0</pdfrwt>
<totfact> 0.12699599E+00</totfact>
</mgrwt>
</event>
<event>
 6    1  0.2603926E-003  0.6532250E+03  0.7818608E-02  0.9800746E-01
          1   -1    0    0  502    0  0.00000000000E+00  0.00000000000E+00  0.11599213307E+03  0.11599213307E+03  0.00000000000E+00 0.  1.
         13   -1    0    0    0    0 -0.00000000000E+00 -0.00000000000E+00 -0.10000000000E+04  0.10000000000E+04  0.00000000000E+00 0.  1.
    9000005    2    1    2  501    0 -0.10581395554E+02  0.60615340675E+01 -0.88868251760E+03  0.11029322523E+04  0.65311119109E+03 0.  0.
         13    1    3    3    0    0 -0.90790342916E+00  0.14922870758E+03 -0.93906654414E+03  0.95085014896E+03  0.00000000000E+00 0.  1.
          3    1    3    3  501    0 -0.96734921248E+01 -0.14316717351E+03  0.50384026543E+02  0.15208210333E+03  0.00000000000E+00 0.  1.
         21    1    1    2  502  501  0.10581395554E+02 -0.60615340675E+01  0.46746506611E+01  0.13059880778E+02  0.00000000000E+00 0. -1.
<mgrwt>
<rscale>  1 0.65322503E+03</rscale>
<asrwt>0</asrwt>
<pdfrwt beam="1">  1        1 0.42179046E+00 0.65322503E+03</pdfrwt>
<pdfrwt beam="2">0</pdfrwt>
<totfact> 0.10675779E+00</totfact>
</mgrwt>
</event>
<event>
 6    1  0.2603926E-003  0.6443898E+03  0.7818608E-02  0.9817364E-01
          1   -1    0    0  502    0  0.00000000000E+00  0.00000000000E+00  0.10627626324E+03  0.10627626324E+03  0.00000000000E+00 0.  1.
         13   -1    0    0    0    0 -0.00000000000E+00 -0.00000000000E+00 -0.10000000000E+04  0.10000000000E+04  0.00000000000E+00 0.  1.
    9000005    2    1    2  501    0  0.13420517697E+00  0.11522678475E+00 -0.89618693926E+03  0.11038067178E+04  0.64438979571E+03 0.  0.
         13    1    3    3    0    0 -0.21137526701E+03 -0.97795884293E+02 -0.82921643442E+03  0.86130333426E+03  0.00000000000E+00 0.  1.
          3    1    3    3  501    0  0.21150947219E+03  0.97911111077E+02 -0.66970504842E+02  0.24250338352E+03  0.00000000000E+00 0.  1.
         21    1    1    2  502  501 -0.13420517697E+00 -0.11522678475E+00  0.24632025006E+01  0.24695454644E+01  0.00000000000E+00 0. -1.
<mgrwt>
<rscale>  1 0.64438982E+03</rscale>
<asrwt>0</asrwt>
<pdfrwt beam="1">  1        1 0.38645995E+00 0.64438982E+03</pdfrwt>
<pdfrwt beam="2">0</pdfrwt>
<totfact> 0.15381743E+00</totfact>
</mgrwt>
</event>
<event>
 6    1  0.2603926E-003  0.6370952E+03  0.7818608E-02  0.9831300E-01
          1   -1    0    0  502    0  0.00000000000E+00  0.00000000000E+00  0.10189018155E+03  0.10189018155E+03  0.00000000000E+00 0.  1.
         13   -1    0    0    0    0 -0.00000000000E+00 -0.00000000000E+00 -0.10000000000E+04  0.10000000000E+04  0.00000000000E+00 0.  1.
    9000005    2    1    2  501    0 -0.60916632676E-02 -0.40047891037E-02 -0.89852737656E+03  0.11014725598E+04  0.63709524682E+03 0.  0.
         13    1    3    3    0    0  0.30453599539E+03 -0.47612246351E+02 -0.31028172508E+03  0.43736008895E+03  0.00000000000E+00 0.  1.
          1    1    3    3  501    0 -0.30454208706E+03  0.47608241562E+02 -0.58824565148E+03  0.66411247085E+03  0.00000000000E+00 0.  1.
         21    1    1    2  502  501  0.60916632676E-02  0.40047891037E-02  0.41755810604E+00  0.41762174107E+00  0.00000000000E+00 0.  1.
<mgrwt>
<rscale>  1 0.63709525E+03</rscale>
<asrwt>0</asrwt>
<pdfrwt beam="1">  1        1 0.37051053E+00 0.63709525E+03</pdfrwt>
<pdfrwt beam="2">0</pdfrwt>
<totfact> 0.18109403E+00</totfact>
</mgrwt>
</event>
<event>
 6    1  0.2603926E-003  0.6419834E+03  0.7818608E-02  0.9821939E-01
          1   -1    0    0  502    0  0.00000000000E+00  0.00000000000E+00  0.10317372962E+03  0.10317372962E+03  0.00000000000E+00 0.  1.
         13   -1    0    0    0    0 -0.00000000000E+00 -0.00000000000E+00 -0.10000000000E+04  0.10000000000E+04  0.00000000000E+00 0.  1.
    9000005    2    1    2  501    0 -0.14580673556E+00  0.12132247272E+00 -0.89688858346E+03  0.11029740758E+04  0.64198336790E+03 0.  0.
         13    1    3    3    0    0 -0.19334912402E+03 -0.11887316604E+03 -0.83849829894E+03  0.86867376540E+03  0.00000000000E+00 0.  1.
          3    1    3    3  501    0  0.19320331728E+03  0.11899448851E+03 -0.58390284518E+02  0.23430031035E+03  0.00000000000E+00 0.  1.
         21    1    1    2  502  501  0.14580673556E+00 -0.12132247272E+00  0.62313077570E-01  0.19965386587E+00  0.00000000000E+00 0. -1.
<mgrwt>
<rscale>  1 0.64198340E+03</rscale>
<asrwt>0</asrwt>
<pdfrwt beam="1">  1        1 0.37517799E+00 0.64198340E+03</pdfrwt>
<pdfrwt beam="2">0</pdfrwt>
<totfact> 0.17258046E+00</totfact>
</mgrwt>
</event>
<event>
 6    1  0.2603926E-003  0.6516482E+03  0.7818608E-02  0.9803691E-01
          1   -1    0    0  502    0  0.00000000000E+00  0.00000000000E+00  0.10616140925E+03  0.10616140925E+03  0.00000000000E+00 0.  1.
         13   -1    0    0    0    0 -0.00000000000E+00 -0.00000000000E+00 -0.10000000000E+04  0.10000000000E+04  0.00000000000E+00 0.  1.
    9000005    2    1    2  501    0  0.49716093088E-04  0.84785246059E-04 -0.89383857759E+03  0.11061613101E+04  0.65164824955E+03 0.  0.
         13    1    3    3    0    0  0.27822897519E+03 -0.16294739239E+03 -0.36733388984E+03  0.48877131866E+03  0.00000000000E+00 0.  1.
          1    1    3    3  501    0 -0.27822892547E+03  0.16294747717E+03 -0.52650468775E+03  0.61738999143E+03  0.00000000000E+00 0.  1.
         21    1    1    2  502  501 -0.49716093093E-04 -0.84785246055E-04 -0.13159876262E-04  0.99163552802E-04  0.00000000000E+00 0.  1.
<mgrwt>
<rscale>  1 0.65164825E+03</rscale>
<asrwt>0</asrwt>
<pdfrwt beam="1">  1        1 0.38604230E+00 0.65164825E+03</pdfrwt>
<pdfrwt beam="2">0</pdfrwt>
<totfact> 0.15426537E+00</totfact>
</mgrwt>
</event>
<event>
 6    1  0.2603926E-003  0.6516128E+03  0.7818608E-02  0.9803758E-01
          1   -1    0    0  502    0  0.00000000000E+00  0.00000000000E+00  0.10625328956E+03  0.10625328956E+03  0.00000000000E+00 0.  1.
         13   -1    0    0    0    0 -0.00000000000E+00 -0.00000000000E+00 -0.10000000000E+04  0.10000000000E+04  0.00000000000E+00 0.  1.
    9000005    2    1    2  501    0  0.53680659560E-02  0.20557029748E-01 -0.89384898997E+03  0.11061488266E+04  0.65161277555E+03 0.  0.
         13    1    3    3    0    0 -0.99097332859E+02 -0.22373509495E+02  0.78574401589E+02  0.12843205165E+03  0.00000000000E+00 0.  1.
          1    1    3    3  501    0  0.99102700925E+02  0.22394066525E+02 -0.97242339156E+03  0.97771677494E+03  0.00000000000E+00 0.  1.
         21    1    1    2  502  501 -0.53680659560E-02 -0.20557029748E-01  0.10227953438E+00  0.10446296357E+00  0.00000000000E+00 0. -1.
<mgrwt>
<rscale>  1 0.65161278E+03</rscale>
<asrwt>0</asrwt>
<pdfrwt beam="1">  1        1 0.38637641E+00 0.65161278E+03</pdfrwt>
<pdfrwt beam="2">0</pdfrwt>
<totfact> 0.15374200E+00</totfact>
</mgrwt>
</event>
<event>
 6    1  0.2603926E-003  0.6528715E+03  0.7818608E-02  0.9801406E-01
          1   -1    0    0  502    0  0.00000000000E+00  0.00000000000E+00  0.10956615244E+03  0.10956615244E+03  0.00000000000E+00 0.  1.
         13   -1    0    0    0    0 -0.00000000000E+00 -0.00000000000E+00 -0.10000000000E+04  0.10000000000E+04  0.00000000000E+00 0.  1.
    9000005    2    1    2  501    0 -0.14331955830E+00 -0.17580416338E+00 -0.89343497220E+03  0.11065564686E+04  0.65287144006E+03 0.  0.
         13    1    3    3    0    0  0.30205151727E+03  0.51927207075E+02 -0.63668138982E+03  0.70660791536E+03  0.00000000000E+00 0.  1.
          1    1    3    3  501    0 -0.30219483682E+03 -0.52103011239E+02 -0.25675358238E+03  0.39994855325E+03  0.00000000000E+00 0.  1.
         21    1    1    2  502  501  0.14331955830E+00  0.17580416338E+00  0.30011246392E+01  0.30096838206E+01  0.00000000000E+00 0.  1.
<mgrwt>
<rscale>  1 0.65287148E+03</rscale>
<asrwt>0</asrwt>
<pdfrwt beam="1">  1        1 0.39842321E+00 0.65287148E+03</pdfrwt>
<pdfrwt beam="2">0</pdfrwt>
<totfact> 0.13589512E+00</totfact>
</mgrwt>
</event>
<event>
 6    1  0.2603926E-003  0.6484824E+03  0.7818608E-02  0.9809631E-01
          1   -1    0    0  502    0  0.00000000000E+00  0.00000000000E+00  0.10620113294E+03  0.10620113294E+03  0.00000000000E+00 0.  1.
         13   -1    0    0    0    0 -0.00000000000E+00 -0.00000000000E+00 -0.10000000000E+04  0.10000000000E+04  0.00000000000E+00 0.  1.
    9000005    2    1    2  501    0  0.29158727097E-02  0.48683418561E-01 -0.89486704271E+03  0.11051318445E+04  0.64848235687E+03 0.  0.
         13    1    3    3    0    0 -0.31182696711E+03 -0.14094470430E+02 -0.59693295737E+03  0.67361982387E+03  0.00000000000E+00 0.  1.
          3    1    3    3  501    0  0.31182988299E+03  0.14143153849E+02 -0.29793408535E+03  0.43151202062E+03  0.00000000000E+00 0.  1.
         21    1    1    2  502  501 -0.29158727097E-02 -0.48683418561E-01  0.10681756526E+01  0.10692884561E+01  0.00000000000E+00 0. -1.
<mgrwt>
<rscale>  1 0.64848236E+03</rscale>
<asrwt>0</asrwt>
<pdfrwt beam="1">  1        1 0.38618675E+00 0.64848236E+03</pdfrwt>
<pdfrwt beam="2">0</pdfrwt>
<totfact> 0.15412878E+00</totfact>
</mgrwt>
</event>
<event>
 6    1  0.2603926E-003  0.6546997E+03  0.7818608E-02  0.9798000E-01
          1   -1    0    0  502    0  0.00000000000E+00  0.00000000000E+00  0.10765894422E+03  0.10765894422E+03  0.00000000000E+00 0.  1.
         13   -1    0    0    0    0 -0.00000000000E+00 -0.00000000000E+00 -0.10000000000E+04  0.10000000000E+04  0.00000000000E+00 0.  1.
    9000005    2    1    2  501    0  0.32358039355E+00 -0.27960152610E+00 -0.89273898970E+03  0.11070747930E+04  0.65469955750E+03 0.  0.
         13    1    3    3    0    0  0.10103845259E+03 -0.10413920100E+03 -0.94286465696E+03  0.95396409966E+03  0.00000000000E+00 0.  1.
          1    1    3    3  501    0 -0.10071487220E+03  0.10385959948E+03  0.50125667260E+02  0.15311069330E+03  0.00000000000E+00 0.  1.
         21    1    1    2  502  501 -0.32358039355E+00  0.27960152610E+00  0.39793392391E+00  0.58415125806E+00  0.00000000000E+00 0.  1.
<mgrwt>
<rscale>  1 0.65469970E+03</rscale>
<asrwt>0</asrwt>
<pdfrwt beam="1">  1        1 0.39148790E+00 0.65469970E+03</pdfrwt>
<pdfrwt beam="2">0</pdfrwt>
<totfact> 0.14584411E+00</totfact>
</mgrwt>
</event>
<event>
 6    1  0.2603926E-003  0.6567664E+03  0.7818608E-02  0.9794165E-01
          1   -1    0    0  502    0  0.00000000000E+00  0.00000000000E+00  0.10783686440E+03  0.10783686440E+03  0.00000000000E+00 0.  1.
         13   -1    0    0    0    0 -0.00000000000E+00 -0.00000000000E+00 -0.10000000000E+04  0.10000000000E+04  0.00000000000E+00 0.  1.
    9000005    2    1    2  501    0 -0.11071832171E-02 -0.72694831274E-03 -0.89216409694E+03  0.11078352278E+04  0.65676640907E+03 0.  0.
         13    1    3    3    0    0 -0.23732696580E+03  0.57174610742E+02 -0.81657563328E+03  0.85228445349E+03  0.00000000000E+00 0.  1.
          3    1    3    3  501    0  0.23732585861E+03 -0.57175337690E+02 -0.75588463661E+02  0.25555077430E+03  0.00000000000E+00 0.  1.
         21    1    1    2  502  501  0.11071832171E-02  0.72694831274E-03  0.96133706889E-03  0.16366054765E-02  0.00000000000E+00 0.  1.
<mgrwt>
<rscale>  1 0.65676641E+03</rscale>
<asrwt>0</asrwt>
<pdfrwt beam="1">  1        1 0.39213488E+00 0.65676641E+03</pdfrwt>
<pdfrwt beam="2">0</pdfrwt>
<totfact> 0.14482720E+00</totfact>
</mgrwt>
</event>
<event>
 6    1  0.2603926E-003  0.7251412E+03  0.7818608E-02  0.9675178E-01
          3   -1    0    0  502    0  0.00000000000E+00  0.00000000000E+00  0.13145771460E+03  0.13145771460E+03  0.00000000000E+00 0.  1.
         13   -1    0    0    0    0 -0.00000000000E+00 -0.00000000000E+00 -0.10000000000E+04  0.10000000000E+04  0.00000000000E+00 0.  1.
    9000005    2    1    2  501    0  0.80591863565E-04 -0.27355795396E-04 -0.86854253836E+03  0.11314574477E+04  0.72514123800E+03 0.  0.
         13    1    3    3    0    0  0.24286127636E+03 -0.36188067272E+02 -0.85051992719E+03  0.88525438283E+03  0.00000000000E+00 0.  1.
          1    1    3    3  501    0 -0.24286119577E+03  0.36188039916E+02 -0.18022611163E+02  0.24620306488E+03  0.00000000000E+00 0.  1.
         21    1    1    2  502  501 -0.80591863555E-04  0.27355795394E-04  0.25295904203E-03  0.26689260941E-03  0.00000000000E+00 0.  1.
<mgrwt>
<rscale>  1 0.72514124E+03</rscale>
<asrwt>0</asrwt>
<pdfrwt beam="1">  1        3 0.47802906E+00 0.72514124E+03</pdfrwt>
<pdfrwt beam="2">0</pdfrwt>
<totfact> 0.23329707E-02</totfact>
</mgrwt>
</event>
<event>
 6    1  0.2603926E-003  0.6065574E+03  0.7818608E-02  0.9891894E-01
          1   -1    0    0  502    0  0.00000000000E+00  0.00000000000E+00  0.91983361180E+02  0.91983361180E+02  0.00000000000E+00 0.  1.
         13   -1    0    0    0    0 -0.00000000000E+00 -0.00000000000E+00 -0.10000000000E+04  0.10000000000E+04  0.00000000000E+00 0.  1.
    9000005    2    1    2  501    0 -0.17962316302E-02 -0.13106532894E-02 -0.90802177310E+03  0.10919777661E+04  0.60655741789E+03 0.  0.
         13    1    3    3    0    0 -0.11554818618E+03 -0.14065074257E+02  0.50162262611E+02  0.12674960447E+03  0.00000000000E+00 0.  1.
          1    1    3    3  501    0  0.11554638995E+03  0.14063763604E+02 -0.95818403571E+03  0.96522816161E+03  0.00000000000E+00 0.  1.
         21    1    1    2  502  501  0.17962316302E-02  0.13106532894E-02  0.51342802155E-02  0.55950954814E-02  0.00000000000E+00 0.  1.
<mgrwt>
<rscale>  1 0.60655742E+03</rscale>
<asrwt>0</asrwt>
<pdfrwt beam="1">  1        1 0.33448566E+00 0.60655742E+03</pdfrwt>
<pdfrwt beam="2">0</pdfrwt>
<totfact> 0.26147676E+00</totfact>
</mgrwt>
</event>
<event>
 6    1  0.2603926E-003  0.6292372E+03  0.7818608E-02  0.9846539E-01
          1   -1    0    0  502    0  0.00000000000E+00  0.00000000000E+00  0.98987250217E+02  0.98987250217E+02  0.00000000000E+00 0.  1.
         13   -1    0    0    0    0 -0.00000000000E+00 -0.00000000000E+00 -0.10000000000E+04  0.10000000000E+04  0.00000000000E+00 0.  1.
    9000005    2    1    2  501    0  0.33848946202E-04 -0.48552560197E-02 -0.90101210037E+03  0.10989823516E+04  0.62923716046E+03 0.  0.
         13    1    3    3    0    0  0.20385246602E+03  0.19820229837E+03 -0.68576050854E+03  0.74236611860E+03  0.00000000000E+00 0.  1.
          1    1    3    3  501    0 -0.20385243217E+03 -0.19820715363E+03 -0.21525159184E+03  0.35661623300E+03  0.00000000000E+00 0.  1.
         21    1    1    2  502  501 -0.33848946195E-04  0.48552560197E-02 -0.64940847345E-03  0.48986108371E-02  0.00000000000E+00 0. -1.
<mgrwt>
<rscale>  1 0.62923716E+03</rscale>
<asrwt>0</asrwt>
<pdfrwt beam="1">  1        1 0.35995440E+00 0.62923716E+03</pdfrwt>
<pdfrwt beam="2">0</pdfrwt>
<totfact> 0.20173857E+00</totfact>
</mgrwt>
</event>
<event>
 6    1  0.2603926E-003  0.6438592E+03  0.7818608E-02  0.9818371E-01
          1   -1    0    0  502    0  0.00000000000E+00  0.00000000000E+00  0.10363934465E+03  0.10363934465E+03  0.00000000000E+00 0.  1.
         13   -1    0    0    0    0 -0.00000000000E+00 -0.00000000000E+00 -0.10000000000E+04  0.10000000000E+04  0.00000000000E+00 0.  1.
    9000005    2    1    2  501    0 -0.36510776997E-04 -0.27184447219E-04 -0.89636132546E+03  0.11036386730E+04  0.64385921968E+03 0.  0.
         13    1    3    3    0    0 -0.87265644354E+01 -0.29862208173E+03 -0.24257890049E+03  0.38483220186E+03  0.00000000000E+00 0.  1.
          1    1    3    3  501    0  0.87265279247E+01  0.29862205455E+03 -0.65378242497E+03  0.71880647114E+03  0.00000000000E+00 0.  1.
         21    1    1    2  502  501  0.36510776996E-04  0.27184447242E-04  0.67010941272E-03  0.67165367268E-03  0.00000000000E+00 0. -1.
<mgrwt>
<rscale>  1 0.64385922E+03</rscale>
<asrwt>0</asrwt>
<pdfrwt beam="1">  1        1 0.37687114E+00 0.64385922E+03</pdfrwt>
<pdfrwt beam="2">0</pdfrwt>
<totfact> 0.16958445E+00</totfact>
</mgrwt>
</event>
<event>
 6    1  0.2603926E-003  0.6401741E+03  0.7818608E-02  0.9825394E-01
          1   -1    0    0  502    0  0.00000000000E+00  0.00000000000E+00  0.10391804397E+03  0.10391804397E+03  0.00000000000E+00 0.  1.
         13   -1    0    0    0    0 -0.00000000000E+00 -0.00000000000E+00 -0.10000000000E+04  0.10000000000E+04  0.00000000000E+00 0.  1.
    9000005    2    1    2  501    0  0.10797591010E+00 -0.70643025276E-01 -0.89754115142E+03  0.11024531548E+04  0.64017405703E+03 0.  0.
         13    1    3    3    0    0  0.22188439574E+03 -0.21635757731E+03 -0.58718059955E+03  0.66394603908E+03  0.00000000000E+00 0.  1.
          1    1    3    3  501    0 -0.22177641983E+03  0.21628693428E+03 -0.31036055187E+03  0.43850711567E+03  0.00000000000E+00 0.  1.
         21    1    1    2  502  501 -0.10797591010E+00  0.70643025276E-01  0.14591953929E+01  0.14648892207E+01  0.00000000000E+00 0. -1.
<mgrwt>
<rscale>  1 0.64017407E+03</rscale>
<asrwt>0</asrwt>
<pdfrwt beam="1">  1        1 0.37788459E+00 0.64017407E+03</pdfrwt>
<pdfrwt beam="2">0</pdfrwt>
<totfact> 0.16796343E+00</totfact>
</mgrwt>
</event>
<event>
 6    1  0.2603926E-003  0.6469630E+03  0.7818608E-02  0.9812495E-01
          1   -1    0    0  502    0  0.00000000000E+00  0.00000000000E+00  0.10464893542E+03  0.10464893542E+03  0.00000000000E+00 0.  1.
         13   -1    0    0    0    0 -0.00000000000E+00 -0.00000000000E+00 -0.10000000000E+04  0.10000000000E+04  0.00000000000E+00 0.  1.
    9000005    2    1    2  501    0 -0.75545811421E-03 -0.13408298102E-02 -0.89535964354E+03  0.11046402195E+04  0.64696299992E+03 0.  0.
         13    1    3    3    0    0 -0.23848940407E+03 -0.20750224678E+03 -0.56481508523E+03  0.64726382471E+03  0.00000000000E+00 0.  1.
          1    1    3    3  501    0  0.23848864862E+03  0.20750090595E+03 -0.33054455832E+03  0.45737639480E+03  0.00000000000E+00 0.  1.
         21    1    1    2  502  501  0.75545811419E-03  0.13408298102E-02  0.85789620287E-02  0.87159125187E-02  0.00000000000E+00 0.  1.
<mgrwt>
<rscale>  1 0.64696300E+03</rscale>
<asrwt>0</asrwt>
<pdfrwt beam="1">  1        1 0.38054239E+00 0.64696300E+03</pdfrwt>
<pdfrwt beam="2">0</pdfrwt>
<totfact> 0.16328648E+00</totfact>
</mgrwt>
</event>
<event>
 6    1  0.2603926E-003  0.6447333E+03  0.7818608E-02  0.9816712E-01
          1   -1    0    0  502    0  0.00000000000E+00  0.00000000000E+00  0.10392133145E+03  0.10392133145E+03  0.00000000000E+00 0.  1.
         13   -1    0    0    0    0 -0.00000000000E+00 -0.00000000000E+00 -0.10000000000E+04  0.10000000000E+04  0.00000000000E+00 0.  1.
    9000005    2    1    2  501    0  0.14349680764E-02 -0.29748344761E-03 -0.89607915785E+03  0.11039197864E+04  0.64473330748E+03 0.  0.
         13    1    3    3    0    0  0.28552777827E+03 -0.86265391710E+02 -0.65741300600E+03  0.72191390791E+03  0.00000000000E+00 0.  1.
          1    1    3    3  501    0 -0.28552634330E+03  0.86265094227E+02 -0.23866615185E+03  0.38200587854E+03  0.00000000000E+00 0.  1.
         21    1    1    2  502  501 -0.14349680764E-02  0.29748344762E-03  0.48929195788E-03  0.15450036899E-02  0.00000000000E+00 0.  1.
<mgrwt>
<rscale>  1 0.64473331E+03</rscale>
<asrwt>0</asrwt>
<pdfrwt beam="1">  1        1 0.37789655E+00 0.64473331E+03</pdfrwt>
<pdfrwt beam="2">0</pdfrwt>
<totfact> 0.16780224E+00</totfact>
</mgrwt>
</event>
<event>
 6    1  0.2603926E-003  0.6495052E+03  0.7818608E-02  0.9807708E-01
          1   -1    0    0  502    0  0.00000000000E+00  0.00000000000E+00  0.10686078969E+03  0.10686078969E+03  0.00000000000E+00 0.  1.
         13   -1    0    0    0    0 -0.00000000000E+00 -0.00000000000E+00 -0.10000000000E+04  0.10000000000E+04  0.00000000000E+00 0.  1.
    9000005    2    1    2  501    0 -0.14122924538E+01  0.74062125845E+00 -0.89401385390E+03  0.11050419738E+04  0.64950323311E+03 0.  0.
         13    1    3    3    0    0 -0.17467329623E+03 -0.27340287148E+03 -0.47385268994E+03  0.57427890638E+03  0.00000000000E+00 0.  1.
          1    1    3    3  501    0  0.17326100377E+03  0.27414349274E+03 -0.42016116395E+03  0.53076306742E+03  0.00000000000E+00 0.  1.
         21    1    1    2  502  501  0.14122924538E+01 -0.74062125845E+00  0.87464358539E+00  0.18188158854E+01  0.00000000000E+00 0. -1.
<mgrwt>
<rscale>  1 0.64950519E+03</rscale>
<asrwt>0</asrwt>
<pdfrwt beam="1">  1        1 0.38858551E+00 0.64950519E+03</pdfrwt>
<pdfrwt beam="2">0</pdfrwt>
<totfact> 0.15037623E+00</totfact>
</mgrwt>
</event>
<event>
 6    1  0.2603926E-003  0.6361777E+03  0.7818608E-02  0.9833067E-01
          1   -1    0    0  502    0  0.00000000000E+00  0.00000000000E+00  0.10127892314E+03  0.10127892314E+03  0.00000000000E+00 0.  1.
         13   -1    0    0    0    0 -0.00000000000E+00 -0.00000000000E+00 -0.10000000000E+04  0.10000000000E+04  0.00000000000E+00 0.  1.
    9000005    2    1    2  501    0 -0.37228222862E-02 -0.45352740655E-02 -0.89881937375E+03  0.11011804513E+04  0.63617774215E+03 0.  0.
         13    1    3    3    0    0 -0.91277444497E+02  0.64643767059E+02  0.66019194470E+02  0.12988041628E+03  0.00000000000E+00 0.  1.
          3    1    3    3  501    0  0.91273721674E+02 -0.64648302333E+02 -0.96483856822E+03  0.97130003500E+03  0.00000000000E+00 0.  1.
         21    1    1    2  502  501  0.37228222862E-02  0.45352740655E-02  0.98296892200E-01  0.98471859599E-01  0.00000000000E+00 0.  1.
<mgrwt>
<rscale>  1 0.63617774E+03</rscale>
<asrwt>0</asrwt>
<pdfrwt beam="1">  1        1 0.36828777E+00 0.63617774E+03</pdfrwt>
<pdfrwt beam="2">0</pdfrwt>
<totfact> 0.18524048E+00</totfact>
</mgrwt>
</event>
<event>
 6    1  0.2603926E-003  0.6599552E+03  0.7818608E-02  0.9788276E-01
          1   -1    0    0  502    0  0.00000000000E+00  0.00000000000E+00  0.10888540668E+03  0.10888540668E+03  0.00000000000E+00 0.  1.
         13   -1    0    0    0    0 -0.00000000000E+00 -0.00000000000E+00 -0.10000000000E+04  0.10000000000E+04  0.00000000000E+00 0.  1.
    9000005    2    1    2  501    0 -0.47624806427E-04 -0.16787173726E-03 -0.89111473067E+03  0.11088851846E+04  0.65995521775E+03 0.  0.
         13    1    3    3    0    0 -0.24740484813E+02  0.13280321503E+03  0.60294682765E+02  0.14793320885E+03  0.00000000000E+00 0.  1.
          3    1    3    3  501    0  0.24740437189E+02 -0.13280338290E+03 -0.95140941344E+03  0.96095197576E+03  0.00000000000E+00 0.  1.
         21    1    1    2  502  501  0.47624806425E-04  0.16787173725E-03  0.13734872680E-03  0.22206691584E-03  0.00000000000E+00 0. -1.
<mgrwt>
<rscale>  1 0.65995522E+03</rscale>
<asrwt>0</asrwt>
<pdfrwt beam="1">  1        1 0.39594777E+00 0.65995522E+03</pdfrwt>
<pdfrwt beam="2">0</pdfrwt>
<totfact> 0.13920220E+00</totfact>
</mgrwt>
</event>
<event>
 6    1  0.2603926E-003  0.6480264E+03  0.7818608E-02  0.9810490E-01
          1   -1    0    0  502    0  0.00000000000E+00  0.00000000000E+00  0.10498778067E+03  0.10498778067E+03  0.00000000000E+00 0.  1.
         13   -1    0    0    0    0 -0.00000000000E+00 -0.00000000000E+00 -0.10000000000E+04  0.10000000000E+04  0.00000000000E+00 0.  1.
    9000005    2    1    2  501    0  0.10162062858E-02  0.33093492638E-03 -0.89501533908E+03  0.11049844829E+04  0.64802642721E+03 0.  0.
         13    1    3    3    0    0  0.15925892572E+03  0.22664461778E+03 -0.16089216506E+03  0.32033962753E+03  0.00000000000E+00 0.  1.
          3    1    3    3  501    0 -0.15925790951E+03 -0.22664428684E+03 -0.73412317401E+03  0.78464485541E+03  0.00000000000E+00 0.  1.
         21    1    1    2  502  501 -0.10162062858E-02 -0.33093492639E-03  0.31197490643E-02  0.32977306386E-02  0.00000000000E+00 0. -1.
<mgrwt>
<rscale>  1 0.64802643E+03</rscale>
<asrwt>0</asrwt>
<pdfrwt beam="1">  1        1 0.38177455E+00 0.64802643E+03</pdfrwt>
<pdfrwt beam="2">0</pdfrwt>
<totfact> 0.16122246E+00</totfact>
</mgrwt>
</event>
<event>
 6    1  0.2603926E-003  0.5385638E+03  0.7818608E-02  0.1004176E+00
          1   -1    0    0  502    0  0.00000000000E+00  0.00000000000E+00  0.72572742559E+02  0.72572742559E+02  0.00000000000E+00 0.  1.
         13   -1    0    0    0    0 -0.00000000000E+00 -0.00000000000E+00 -0.10000000000E+04  0.10000000000E+04  0.00000000000E+00 0.  1.
    9000005    2    1    2  501    0  0.82319551595E-01 -0.92012962202E-01 -0.92741292470E+03  0.10724484513E+04  0.53856376829E+03 0.  0.
         13    1    3    3    0    0  0.13241535419E+03  0.20380290495E+03 -0.23286580279E+03  0.33659461107E+03  0.00000000000E+00 0.  1.
          1    1    3    3  501    0 -0.13233303464E+03 -0.20389491791E+03 -0.69454712191E+03  0.73585384022E+03  0.00000000000E+00 0.  1.
         21    1    1    2  502  501 -0.82319551595E-01  0.92012962202E-01 -0.14332742166E-01  0.12429127599E+00  0.00000000000E+00 0.  1.
<mgrwt>
<rscale>  1 0.53856378E+03</rscale>
<asrwt>0</asrwt>
<pdfrwt beam="1">  1        1 0.26390144E+00 0.53856378E+03</pdfrwt>
<pdfrwt beam="2">0</pdfrwt>
<totfact> 0.53400351E+00</totfact>
</mgrwt>
</event>
<event>
 6    1  0.2603926E-003  0.6453345E+03  0.7818608E-02  0.9815573E-01
          1   -1    0    0  502    0  0.00000000000E+00  0.00000000000E+00  0.10428359744E+03  0.10428359744E+03  0.00000000000E+00 0.  1.
         13   -1    0    0    0    0 -0.00000000000E+00 -0.00000000000E+00 -0.10000000000E+04  0.10000000000E+04  0.00000000000E+00 0.  1.
    9000005    2    1    2  501    0 -0.27114970439E-01  0.17525514058E-01 -0.89588414449E+03  0.11041127767E+04  0.64533450420E+03 0.  0.
         13    1    3    3    0    0 -0.31485670117E+03  0.21830271372E+02 -0.56288298585E+03  0.64532825661E+03  0.00000000000E+00 0.  1.
          1    1    3    3  501    0  0.31482958620E+03 -0.21812745858E+02 -0.33300115864E+03  0.45878452010E+03  0.00000000000E+00 0.  1.
         21    1    1    2  502  501  0.27114970439E-01 -0.17525514058E-01  0.16774193043E+00  0.17082072617E+00  0.00000000000E+00 0. -1.
<mgrwt>
<rscale>  1 0.64533451E+03</rscale>
<asrwt>0</asrwt>
<pdfrwt beam="1">  1        1 0.37921388E+00 0.64533451E+03</pdfrwt>
<pdfrwt beam="2">0</pdfrwt>
<totfact> 0.16555470E+00</totfact>
</mgrwt>
</event>
<event>
 6    1  0.2603926E-003  0.6423794E+03  0.7818608E-02  0.9821185E-01
          1   -1    0    0  502    0  0.00000000000E+00  0.00000000000E+00  0.10316293804E+03  0.10316293804E+03  0.00000000000E+00 0.  1.
         13   -1    0    0    0    0 -0.00000000000E+00 -0.00000000000E+00 -0.10000000000E+04  0.10000000000E+04  0.00000000000E+00 0.  1.
    9000005    2    1    2  501    0 -0.25796736281E-04  0.45840938611E-04 -0.89683717105E+03  0.11031628169E+04  0.64237939667E+03 0.  0.
         13    1    3    3    0    0 -0.18084099744E+03 -0.24405103567E+03 -0.26913924600E+03  0.40583285735E+03  0.00000000000E+00 0.  1.
          3    1    3    3  501    0  0.18084097165E+03  0.24405108151E+03 -0.62769792506E+03  0.69732995958E+03  0.00000000000E+00 0.  1.
         21    1    1    2  502  501  0.25796736293E-04 -0.45840938625E-04  0.10909698509E-03  0.12111571084E-03  0.00000000000E+00 0.  1.
<mgrwt>
<rscale>  1 0.64237940E+03</rscale>
<asrwt>0</asrwt>
<pdfrwt beam="1">  1        1 0.37513875E+00 0.64237940E+03</pdfrwt>
<pdfrwt beam="2">0</pdfrwt>
<totfact> 0.17263661E+00</totfact>
</mgrwt>
</event>
<event>
 6    1  0.2603926E-003  0.6517730E+03  0.7818608E-02  0.9803458E-01
          1   -1    0    0  502    0  0.00000000000E+00  0.00000000000E+00  0.10622708753E+03  0.10622708753E+03  0.00000000000E+00 0.  1.
         13   -1    0    0    0    0 -0.00000000000E+00 -0.00000000000E+00 -0.10000000000E+04  0.10000000000E+04  0.00000000000E+00 0.  1.
    9000005    2    1    2  501    0 -0.24661703515E-02  0.10137920875E-02 -0.89379791869E+03  0.11062019395E+04  0.65177297550E+03 0.  0.
         13    1    3    3    0    0 -0.22520019408E+02 -0.48385808102E+02  0.98734520100E+02  0.11223565904E+03  0.00000000000E+00 0.  1.
          1    1    3    3  501    0  0.22517553238E+02  0.48386821894E+02 -0.99253243879E+03  0.99396628051E+03  0.00000000000E+00 0.  1.
         21    1    1    2  502  501  0.24661703515E-02 -0.10137920875E-02  0.25006218796E-01  0.25147977037E-01  0.00000000000E+00 0. -1.
<mgrwt>
<rscale>  1 0.65177298E+03</rscale>
<asrwt>0</asrwt>
<pdfrwt beam="1">  1        1 0.38628113E+00 0.65177298E+03</pdfrwt>
<pdfrwt beam="2">0</pdfrwt>
<totfact> 0.15388681E+00</totfact>
</mgrwt>
</event>
<event>
 6    1  0.2603926E-003  0.5016737E+03  0.7818608E-02  0.1013343E+00
          1   -1    0    0  502    0  0.00000000000E+00  0.00000000000E+00  0.62975776209E+02  0.62975776209E+02  0.00000000000E+00 0.  1.
         13   -1    0    0    0    0 -0.00000000000E+00 -0.00000000000E+00 -0.10000000000E+04  0.10000000000E+04  0.00000000000E+00 0.  1.
    9000005    2    1    2  501    0 -0.12046787836E+00  0.14293684644E+00 -0.93687088401E+03  0.10627339983E+04  0.50167366182E+03 0.  0.
         13    1    3    3    0    0 -0.23918946696E+03  0.42454670342E+02 -0.33559602795E+03  0.41429300515E+03  0.00000000000E+00 0.  1.
          1    1    3    3  501    0  0.23906899908E+03 -0.42311733495E+02 -0.60127485605E+03  0.64844099318E+03  0.00000000000E+00 0.  1.
         21    1    1    2  502  501  0.12046787836E+00 -0.14293684644E+00 -0.15333978457E+00  0.24177787599E+00  0.00000000000E+00 0. -1.
<mgrwt>
<rscale>  1 0.50167370E+03</rscale>
<asrwt>0</asrwt>
<pdfrwt beam="1">  1        1 0.22900331E+00 0.50167370E+03</pdfrwt>
<pdfrwt beam="2">0</pdfrwt>
<totfact> 0.76282760E+00</totfact>
</mgrwt>
</event>
<event>
 6    1  0.2603926E-003  0.6340042E+03  0.7818608E-02  0.9837266E-01
          1   -1    0    0  502    0  0.00000000000E+00  0.00000000000E+00  0.10050101053E+03  0.10050101053E+03  0.00000000000E+00 0.  1.
         13   -1    0    0    0    0 -0.00000000000E+00 -0.00000000000E+00 -0.10000000000E+04  0.10000000000E+04  0.00000000000E+00 0.  1.
    9000005    2    1    2  501    0 -0.20026269613E-03  0.14644668180E-03 -0.89950967594E+03  0.11004903212E+04  0.63400417182E+03 0.  0.
         13    1    3    3    0    0  0.29261403550E+03  0.66756525172E+02 -0.62686247013E+03  0.69500788764E+03  0.00000000000E+00 0.  1.
          1    1    3    3  501    0 -0.29261423576E+03 -0.66756378725E+02 -0.27264720582E+03  0.40548243354E+03  0.00000000000E+00 0.  1.
         21    1    1    2  502  501  0.20026269614E-03 -0.14644668180E-03  0.10686470193E-01  0.10689349698E-01  0.00000000000E+00 0. -1.
<mgrwt>
<rscale>  1 0.63400417E+03</rscale>
<asrwt>0</asrwt>
<pdfrwt beam="1">  1        1 0.36545899E+00 0.63400417E+03</pdfrwt>
<pdfrwt beam="2">0</pdfrwt>
<totfact> 0.19068387E+00</totfact>
</mgrwt>
</event>
<event>
 6    1  0.2603926E-003  0.5450950E+03  0.7818608E-02  0.1002636E+00
          1   -1    0    0  502    0  0.00000000000E+00  0.00000000000E+00  0.74282156615E+02  0.74282156615E+02  0.00000000000E+00 0.  1.
         13   -1    0    0    0    0 -0.00000000000E+00 -0.00000000000E+00 -0.10000000000E+04  0.10000000000E+04  0.00000000000E+00 0.  1.
    9000005    2    1    2  501    0 -0.15961408685E-04  0.13139145949E-05 -0.92571785961E+03  0.10742821338E+04  0.54509498937E+03 0.  0.
         13    1    3    3    0    0  0.10955189809E+02  0.75303035862E+02  0.52921351718E+02  0.92688903658E+02  0.00000000000E+00 0.  1.
          1    1    3    3  501    0 -0.10955205770E+02 -0.75303034548E+02 -0.97863921133E+03  0.98159323016E+03  0.00000000000E+00 0.  1.
         21    1    1    2  502  501  0.15961408686E-04 -0.13139146021E-05  0.16224274057E-04  0.22797368434E-04  0.00000000000E+00 0. -1.
<mgrwt>
<rscale>  1 0.54509499E+03</rscale>
<asrwt>0</asrwt>
<pdfrwt beam="1">  1        1 0.27011750E+00 0.54509499E+03</pdfrwt>
<pdfrwt beam="2">0</pdfrwt>
<totfact> 0.50137567E+00</totfact>
</mgrwt>
</event>
<event>
 6    1  0.2603926E-003  0.5819012E+03  0.7818608E-02  0.9943683E-01
          1   -1    0    0  502    0  0.00000000000E+00  0.00000000000E+00  0.84835291474E+02  0.84835291474E+02  0.00000000000E+00 0.  1.
         13   -1    0    0    0    0 -0.00000000000E+00 -0.00000000000E+00 -0.10000000000E+04  0.10000000000E+04  0.00000000000E+00 0.  1.
    9000005    2    1    2  501    0 -0.64458637081E-01  0.40445812075E-02 -0.91534154840E+03  0.10846470267E+04  0.58190120999E+03 0.  0.
         13    1    3    3    0    0 -0.17718516755E+03  0.22247317052E+03 -0.34316946579E+03  0.44570638031E+03  0.00000000000E+00 0.  1.
          3    1    3    3  501    0  0.17712070892E+03 -0.22246912594E+03 -0.57217208261E+03  0.63894064641E+03  0.00000000000E+00 0.  1.
         21    1    1    2  502  501  0.64458637081E-01 -0.40445812075E-02  0.17683987236E+00  0.18826474707E+00  0.00000000000E+00 0. -1.
<mgrwt>
<rscale>  1 0.58190121E+03</rscale>
<asrwt>0</asrwt>
<pdfrwt beam="1">  1        1 0.30849262E+00 0.58190121E+03</pdfrwt>
<pdfrwt beam="2">0</pdfrwt>
<totfact> 0.34021709E+00</totfact>
</mgrwt>
</event>
<event>
 6    1  0.2603926E-003  0.6638877E+03  0.7818608E-02  0.9781063E-01
          1   -1    0    0  502    0  0.00000000000E+00  0.00000000000E+00  0.11018898685E+03  0.11018898685E+03  0.00000000000E+00 0.  1.
         13   -1    0    0    0    0 -0.00000000000E+00 -0.00000000000E+00 -0.10000000000E+04  0.10000000000E+04  0.00000000000E+00 0.  1.
    9000005    2    1    2  501    0  0.48742735266E-03  0.31076762844E-02 -0.88981201720E+03  0.11101856848E+04  0.66388766281E+03 0.  0.
         13    1    3    3    0    0  0.38561749333E+02  0.28133944050E+03 -0.73236309504E+03  0.78549003321E+03  0.00000000000E+00 0.  1.
          3    1    3    3  501    0 -0.38561261906E+02 -0.28133633283E+03 -0.15744892215E+03  0.32469565161E+03  0.00000000000E+00 0.  1.
         21    1    1    2  502  501 -0.48742735266E-03 -0.31076762844E-02  0.10040436917E-02  0.33020207521E-02  0.00000000000E+00 0.  1.
<mgrwt>
<rscale>  1 0.66388766E+03</rscale>
<asrwt>0</asrwt>
<pdfrwt beam="1">  1        1 0.40068807E+00 0.66388766E+03</pdfrwt>
<pdfrwt beam="2">0</pdfrwt>
<totfact> 0.13249779E+00</totfact>
</mgrwt>
</event>
<event>
 6    1  0.2603926E-003  0.6503992E+03  0.7818608E-02  0.9806030E-01
          1   -1    0    0  502    0  0.00000000000E+00  0.00000000000E+00  0.10575478363E+03  0.10575478363E+03  0.00000000000E+00 0.  1.
         13   -1    0    0    0    0 -0.00000000000E+00 -0.00000000000E+00 -0.10000000000E+04  0.10000000000E+04  0.00000000000E+00 0.  1.
    9000005    2    1    2  501    0  0.10441327163E-05  0.26091224754E-05 -0.89424521817E+03  0.11057547803E+04  0.65039920349E+03 0.  0.
         13    1    3    3    0    0  0.24313375198E+03  0.44802010009E+02 -0.80630041391E+03  0.84335140892E+03  0.00000000000E+00 0.  1.
          1    1    3    3  501    0 -0.24313375093E+03 -0.44802007399E+02 -0.87944804263E+02  0.26240337137E+03  0.00000000000E+00 0.  1.
         21    1    1    2  502  501 -0.10441327139E-05 -0.26091224804E-05  0.18043826368E-05  0.33396900967E-05  0.00000000000E+00 0.  1.
<mgrwt>
<rscale>  1 0.65039920E+03</rscale>
<asrwt>0</asrwt>
<pdfrwt beam="1">  1        1 0.38456366E+00 0.65039920E+03</pdfrwt>
<pdfrwt beam="2">0</pdfrwt>
<totfact> 0.15664266E+00</totfact>
</mgrwt>
</event>
<event>
 6    1  0.2603926E-003  0.6949123E+03  0.7818608E-02  0.9725973E-01
          1   -1    0    0  502    0  0.00000000000E+00  0.00000000000E+00  0.13527509473E+03  0.13527509473E+03  0.00000000000E+00 0.  1.
         13   -1    0    0    0    0 -0.00000000000E+00 -0.00000000000E+00 -0.10000000000E+04  0.10000000000E+04  0.00000000000E+00 0.  1.
    9000005    2    1    2  501    0  0.26037067120E+00 -0.23523629680E+00 -0.87927184242E+03  0.11207239261E+04  0.69491224084E+03 0.  0.
         13    1    3    3    0    0  0.25887925498E+03  0.22509886864E+03 -0.52876172795E+03  0.63029908319E+03  0.00000000000E+00 0.  1.
          3    1    3    3  501    0 -0.25861888431E+03 -0.22533410494E+03 -0.35051011447E+03  0.49042484288E+03  0.00000000000E+00 0.  1.
         21    1    1    2  502  501 -0.26037067120E+00  0.23523629680E+00  0.14546937150E+02  0.14551168663E+02  0.00000000000E+00 0.  1.
<mgrwt>
<rscale>  1 0.69491233E+03</rscale>
<asrwt>0</asrwt>
<pdfrwt beam="1">  1        1 0.49191047E+00 0.69491233E+03</pdfrwt>
<pdfrwt beam="2">0</pdfrwt>
<totfact> 0.50060337E-01</totfact>
</mgrwt>
</event>
<event>
 6    1  0.2603926E-003  0.6502668E+03  0.7818608E-02  0.9806279E-01
          1   -1    0    0  502    0  0.00000000000E+00  0.00000000000E+00  0.10982686901E+03  0.10982686901E+03  0.00000000000E+00 0.  1.
         13   -1    0    0    0    0 -0.00000000000E+00 -0.00000000000E+00 -0.10000000000E+04  0.10000000000E+04  0.00000000000E+00 0.  1.
    9000005    2    1    2  501    0 -0.48501204230E-01  0.48388832036E-01 -0.89428796860E+03  0.11057114611E+04  0.65026676042E+03 0.  0.
         13    1    3    3    0    0  0.26688131389E+03 -0.10373578535E+03 -0.70891739863E+03  0.76455910625E+03  0.00000000000E+00 0.  1.
          3    1    3    3  501    0 -0.26692981510E+03  0.10378417418E+03 -0.18537056997E+03  0.34115235484E+03  0.00000000000E+00 0.  1.
         21    1    1    2  502  501  0.48501204230E-01 -0.48388832036E-01  0.41148376094E+01  0.41154079260E+01  0.00000000000E+00 0. -1.
<mgrwt>
<rscale>  1 0.65026676E+03</rscale>
<asrwt>0</asrwt>
<pdfrwt beam="1">  1        1 0.39937127E+00 0.65026676E+03</pdfrwt>
<pdfrwt beam="2">0</pdfrwt>
<totfact> 0.13464640E+00</totfact>
</mgrwt>
</event>
<event>
 6    1  0.2603926E-003  0.6609451E+03  0.7818608E-02  0.9786456E-01
          3   -1    0    0  502    0  0.00000000000E+00  0.00000000000E+00  0.12233366631E+03  0.12233366631E+03  0.00000000000E+00 0.  1.
         13   -1    0    0    0    0 -0.00000000000E+00 -0.00000000000E+00 -0.10000000000E+04  0.10000000000E+04  0.00000000000E+00 0.  1.
    9000005    2    1    2  501    0  0.37666376556E+00  0.15716502644E+00 -0.89078438662E+03  0.11092092658E+04  0.66094493363E+03 0.  0.
         13    1    3    3    0    0 -0.20220668457E+02  0.25047298732E+03 -0.85135441168E+02  0.26531799063E+03  0.00000000000E+00 0.  1.
          1    1    3    3  501    0  0.20597332223E+02 -0.25031582229E+03 -0.80564894545E+03  0.84389127516E+03  0.00000000000E+00 0.  1.
         21    1    1    2  502  501 -0.37666376556E+00 -0.15716502644E+00  0.13118052933E+02  0.13124400526E+02  0.00000000000E+00 0. -1.
<mgrwt>
<rscale>  1 0.66094506E+03</rscale>
<asrwt>0</asrwt>
<pdfrwt beam="1">  1        3 0.44485063E+00 0.66094506E+03</pdfrwt>
<pdfrwt beam="2">0</pdfrwt>
<totfact> 0.34657786E-02</totfact>
</mgrwt>
</event>
<event>
 6    1  0.2603926E-003  0.6524055E+03  0.7818608E-02  0.9802276E-01
          1   -1    0    0  502    0  0.00000000000E+00  0.00000000000E+00  0.10641395305E+03  0.10641395305E+03  0.00000000000E+00 0.  1.
         13   -1    0    0    0    0 -0.00000000000E+00 -0.00000000000E+00 -0.10000000000E+04  0.10000000000E+04  0.00000000000E+00 0.  1.
    9000005    2    1    2  501    0  0.19875859915E-03 -0.47497175160E-04 -0.89359177810E+03  0.11064082183E+04  0.65240545639E+03 0.  0.
         13    1    3    3    0    0 -0.75931977435E+02 -0.31724202514E+03 -0.44718314450E+03  0.55351687638E+03  0.00000000000E+00 0.  1.
          3    1    3    3  501    0  0.75932176194E+02  0.31724197765E+03 -0.44640863361E+03  0.55289134188E+03  0.00000000000E+00 0.  1.
         21    1    1    2  502  501 -0.19875859915E-03  0.47497175164E-04  0.57311485833E-02  0.57347907587E-02  0.00000000000E+00 0. -1.
<mgrwt>
<rscale>  1 0.65240546E+03</rscale>
<asrwt>0</asrwt>
<pdfrwt beam="1">  1        1 0.38696065E+00 0.65240546E+03</pdfrwt>
<pdfrwt beam="2">0</pdfrwt>
<totfact> 0.15280672E+00</totfact>
</mgrwt>
</event>
<event>
 6    1  0.2603926E-003  0.6485494E+03  0.7818608E-02  0.9809505E-01
          1   -1    0    0  502    0  0.00000000000E+00  0.00000000000E+00  0.10523566212E+03  0.10523566212E+03  0.00000000000E+00 0.  1.
         13   -1    0    0    0    0 -0.00000000000E+00 -0.00000000000E+00 -0.10000000000E+04  0.10000000000E+04  0.00000000000E+00 0.  1.
    9000005    2    1    2  501    0 -0.26165936422E-02 -0.23643092597E-02 -0.89484589157E+03  0.11051540322E+04  0.64854935451E+03 0.  0.
         13    1    3    3    0    0 -0.69348775665E+01 -0.35088370800E+02 -0.99662887991E+03  0.99727048014E+03  0.00000000000E+00 0.  1.
          3    1    3    3  501    0  0.69322609729E+01  0.35086006491E+02  0.10178298833E+03  0.10788355207E+03  0.00000000000E+00 0.  1.
         21    1    1    2  502  501  0.26165936422E-02  0.23643092597E-02  0.81553690737E-01  0.81629902569E-01  0.00000000000E+00 0. -1.
<mgrwt>
<rscale>  1 0.64854935E+03</rscale>
<asrwt>0</asrwt>
<pdfrwt beam="1">  1        1 0.38267594E+00 0.64854935E+03</pdfrwt>
<pdfrwt beam="2">0</pdfrwt>
<totfact> 0.15973578E+00</totfact>
</mgrwt>
</event>
<event>
 6    1  0.2603926E-003  0.6525476E+03  0.7818608E-02  0.9802010E-01
          1   -1    0    0  502    0  0.00000000000E+00  0.00000000000E+00  0.10645705113E+03  0.10645705113E+03  0.00000000000E+00 0.  1.
         13   -1    0    0    0    0 -0.00000000000E+00 -0.00000000000E+00 -0.10000000000E+04  0.10000000000E+04  0.00000000000E+00 0.  1.
    9000005    2    1    2  501    0  0.31551550139E-02 -0.57531220611E-02 -0.89353885763E+03  0.11064493186E+04  0.65254762628E+03 0.  0.
         13    1    3    3    0    0  0.84850972929E+02 -0.20732658948E+03 -0.44550591017E+02  0.22840481053E+03  0.00000000000E+00 0.  1.
          1    1    3    3  501    0 -0.84847817774E+02  0.20732083636E+03 -0.84898826661E+03  0.87804450810E+03  0.00000000000E+00 0.  1.
         21    1    1    2  502  501 -0.31551550139E-02  0.57531220611E-02 -0.40912367393E-02  0.77325050707E-02  0.00000000000E+00 0.  1.
<mgrwt>
<rscale>  1 0.65254763E+03</rscale>
<asrwt>0</asrwt>
<pdfrwt beam="1">  1        1 0.38711737E+00 0.65254763E+03</pdfrwt>
<pdfrwt beam="2">0</pdfrwt>
<totfact> 0.15255874E+00</totfact>
</mgrwt>
</event>
<event>
 6    1  0.2603926E-003  0.6339681E+03  0.7818608E-02  0.9837336E-01
          1   -1    0    0  502    0  0.00000000000E+00  0.00000000000E+00  0.10048188841E+03  0.10048188841E+03  0.00000000000E+00 0.  1.
         13   -1    0    0    0    0 -0.00000000000E+00 -0.00000000000E+00 -0.10000000000E+04  0.10000000000E+04  0.00000000000E+00 0.  1.
    9000005    2    1    2  501    0  0.11287233362E-02 -0.23960119931E-02 -0.89952046488E+03  0.11004783454E+04  0.63396807645E+03 0.  0.
         13    1    3    3    0    0  0.10466434015E+03 -0.24036749947E+03 -0.75905838184E+03  0.80305714986E+03  0.00000000000E+00 0.  1.
          1    1    3    3  501    0 -0.10466321143E+03  0.24036510346E+03 -0.14046208305E+03  0.29742119555E+03  0.00000000000E+00 0.  1.
         21    1    1    2  502  501 -0.11287233362E-02  0.23960119931E-02  0.23532953791E-02  0.35430056424E-02  0.00000000000E+00 0.  1.
<mgrwt>
<rscale>  1 0.63396808E+03</rscale>
<asrwt>0</asrwt>
<pdfrwt beam="1">  1        1 0.36538946E+00 0.63396808E+03</pdfrwt>
<pdfrwt beam="2">0</pdfrwt>
<totfact> 0.19081899E+00</totfact>
</mgrwt>
</event>
<event>
 6    1  0.2603926E-003  0.6605734E+03  0.7818608E-02  0.9787139E-01
          1   -1    0    0  502    0  0.00000000000E+00  0.00000000000E+00  0.10908945489E+03  0.10908945489E+03  0.00000000000E+00 0.  1.
         13   -1    0    0    0    0 -0.00000000000E+00 -0.00000000000E+00 -0.10000000000E+04  0.10000000000E+04  0.00000000000E+00 0.  1.
    9000005    2    1    2  501    0  0.11633133461E-04  0.44387360873E-04 -0.89091069710E+03  0.11090892961E+04  0.66057338468E+03 0.  0.
         13    1    3    3    0    0 -0.23072130331E+02 -0.10585620423E+03  0.78406329389E+02  0.13373635131E+03  0.00000000000E+00 0.  1.
          3    1    3    3  501    0  0.23072141964E+02  0.10585624862E+03 -0.96931702649E+03  0.97535294481E+03  0.00000000000E+00 0.  1.
         21    1    1    2  502  501 -0.11633133460E-04 -0.44387360872E-04  0.15199099381E-03  0.15876658905E-03  0.00000000000E+00 0.  1.
<mgrwt>
<rscale>  1 0.66057338E+03</rscale>
<asrwt>0</asrwt>
<pdfrwt beam="1">  1        1 0.39668976E+00 0.66057338E+03</pdfrwt>
<pdfrwt beam="2">0</pdfrwt>
<totfact> 0.13813194E+00</totfact>
</mgrwt>
</event>
<event>
 6    1  0.2603926E-003  0.6368051E+03  0.7818608E-02  0.9831858E-01
          1   -1    0    0  502    0  0.00000000000E+00  0.00000000000E+00  0.10138368831E+03  0.10138368831E+03  0.00000000000E+00 0.  1.
         13   -1    0    0    0    0 -0.00000000000E+00 -0.00000000000E+00 -0.10000000000E+04  0.10000000000E+04  0.00000000000E+00 0.  1.
    9000005    2    1    2  501    0  0.90034195864E-04  0.93307904422E-04 -0.89861979943E+03  0.11013801982E+04  0.63680514835E+03 0.  0.
         13    1    3    3    0    0 -0.26377805239E+03 -0.13166900428E+03 -0.65731949985E+03  0.72040579710E+03  0.00000000000E+00 0.  1.
          3    1    3    3  501    0  0.26377814243E+03  0.13166909759E+03 -0.24130029958E+03  0.38097440105E+03  0.00000000000E+00 0.  1.
         21    1    1    2  502  501 -0.90034195872E-04 -0.93307904417E-04  0.34877457726E-02  0.34901551679E-02  0.00000000000E+00 0.  1.
<mgrwt>
<rscale>  1 0.63680515E+03</rscale>
<asrwt>0</asrwt>
<pdfrwt beam="1">  1        1 0.36866873E+00 0.63680515E+03</pdfrwt>
<pdfrwt beam="2">0</pdfrwt>
<totfact> 0.18450763E+00</totfact>
</mgrwt>
</event>
<event>
 6    1  0.2603926E-003  0.6556591E+03  0.7818608E-02  0.9796218E-01
          1   -1    0    0  502    0  0.00000000000E+00  0.00000000000E+00  0.10769651341E+03  0.10769651341E+03  0.00000000000E+00 0.  1.
         13   -1    0    0    0    0 -0.00000000000E+00 -0.00000000000E+00 -0.10000000000E+04  0.10000000000E+04  0.00000000000E+00 0.  1.
    9000005    2    1    2  501    0  0.11284611277E+00  0.25986995102E+00 -0.89242405767E+03  0.11073886108E+04  0.65565902445E+03 0.  0.
         13    1    3    3    0    0  0.18006636567E+03  0.66264647991E+02  0.27818812108E+01  0.19189225748E+03  0.00000000000E+00 0.  1.
          3    1    3    3  501    0 -0.17995351956E+03 -0.66004778040E+02 -0.89520593888E+03  0.91549635331E+03  0.00000000000E+00 0.  1.
         21    1    1    2  502  501 -0.11284611277E+00 -0.25986995102E+00  0.12057107923E+00  0.30790261732E+00  0.00000000000E+00 0.  1.
<mgrwt>
<rscale>  1 0.65565909E+03</rscale>
<asrwt>0</asrwt>
<pdfrwt beam="1">  1        1 0.39162451E+00 0.65565909E+03</pdfrwt>
<pdfrwt beam="2">0</pdfrwt>
<totfact> 0.14561466E+00</totfact>
</mgrwt>
</event>
<event>
 6    1  0.2603926E-003  0.6564820E+03  0.7818608E-02  0.9794692E-01
          1   -1    0    0  502    0  0.00000000000E+00  0.00000000000E+00  0.11140962072E+03  0.11140962072E+03  0.00000000000E+00 0.  1.
         13   -1    0    0    0    0 -0.00000000000E+00 -0.00000000000E+00 -0.10000000000E+04  0.10000000000E+04  0.00000000000E+00 0.  1.
    9000005    2    1    2  501    0 -0.66465876068E+00 -0.13761325429E+01 -0.89208064939E+03  0.11075994373E+04  0.65648023050E+03 0.  0.
         13    1    3    3    0    0  0.28292848563E+02  0.26679309071E+02 -0.99567567760E+03  0.99643480759E+03  0.00000000000E+00 0.  1.
          1    1    3    3  501    0 -0.28957507324E+02 -0.28055441613E+02  0.10359502821E+03  0.11116462974E+03  0.00000000000E+00 0.  1.
         21    1    1    2  502  501  0.66465876068E+00  0.13761325429E+01  0.34902701077E+01  0.38101833904E+01  0.00000000000E+00 0. -1.
<mgrwt>
<rscale>  1 0.65648201E+03</rscale>
<asrwt>0</asrwt>
<pdfrwt beam="1">  1        1 0.40512675E+00 0.65648201E+03</pdfrwt>
<pdfrwt beam="2">0</pdfrwt>
<totfact> 0.12676301E+00</totfact>
</mgrwt>
</event>
<event>
 6    1  0.2603926E-003  0.6468628E+03  0.7818608E-02  0.9812684E-01
          1   -1    0    0  502    0  0.00000000000E+00  0.00000000000E+00  0.11382832835E+03  0.11382832835E+03  0.00000000000E+00 0.  1.
         13   -1    0    0    0    0 -0.00000000000E+00 -0.00000000000E+00 -0.10000000000E+04  0.10000000000E+04  0.00000000000E+00 0.  1.
    9000005    2    1    2  501    0 -0.76359210377E+00 -0.10031723042E+01 -0.89534449530E+03  0.11045692722E+04  0.64686159441E+03 0.  0.
         13    1    3    3    0    0  0.40206451770E+02  0.19381814667E+03 -0.11170539675E+02  0.19825946055E+03  0.00000000000E+00 0.  1.
          3    1    3    3  501    0 -0.40970043874E+02 -0.19482131897E+03 -0.88417395563E+03  0.90630981162E+03  0.00000000000E+00 0.  1.
         21    1    1    2  502  501  0.76359210377E+00  0.10031723042E+01  0.91728236562E+01  0.92590561830E+01  0.00000000000E+00 0. -1.
<mgrwt>
<rscale>  1 0.64686282E+03</rscale>
<asrwt>0</asrwt>
<pdfrwt beam="1">  1        1 0.41392207E+00 0.64686282E+03</pdfrwt>
<pdfrwt beam="2">0</pdfrwt>
<totfact> 0.11597995E+00</totfact>
</mgrwt>
</event>
<event>
 6    1  0.2743668E-003  0.6483842E+03  0.7818608E-02  0.9809816E-01
          1   -1    0    0  502    0  0.00000000000E+00  0.00000000000E+00  0.10510050878E+03  0.10510050878E+03  0.00000000000E+00 0.  1.
         13   -1    0    0    0    0 -0.00000000000E+00 -0.00000000000E+00 -0.10000000000E+04  0.10000000000E+04  0.00000000000E+00 0.  1.
    9000005    2    1    2  501    0 -0.17766280109E-05  0.29065558209E-05 -0.89489949149E+03  0.11051005054E+04  0.64838416627E+03 0.  0.
         13    1    3    3    0    0 -0.89202065819E+02 -0.50202970045E+02 -0.97173555227E+03  0.97711172867E+03  0.00000000000E+00 0.  1.
          1    1    3    3  501    0  0.89202064043E+02  0.50202972952E+02  0.76836060781E+02  0.12798877669E+03  0.00000000000E+00 0.  1.
         21    1    1    2  502  501  0.17766280084E-05 -0.29065558216E-05  0.27142934443E-06  0.34173304952E-05  0.00000000000E+00 0.  1.
<mgrwt>
<rscale>  1 0.64838417E+03</rscale>
<asrwt>0</asrwt>
<pdfrwt beam="1">  1        1 0.38218447E+00 0.64838417E+03</pdfrwt>
<pdfrwt beam="2">0</pdfrwt>
<totfact> 0.16054120E+00</totfact>
</mgrwt>
</event>
<event>
 6    1  0.2603926E-003  0.6538566E+03  0.7818608E-02  0.9799569E-01
          1   -1    0    0  502    0  0.00000000000E+00  0.00000000000E+00  0.10688259958E+03  0.10688259958E+03  0.00000000000E+00 0.  1.
         13   -1    0    0    0    0 -0.00000000000E+00 -0.00000000000E+00 -0.10000000000E+04  0.10000000000E+04  0.00000000000E+00 0.  1.
    9000005    2    1    2  501    0 -0.30963700368E-04  0.23049723609E-04 -0.89311787017E+03  0.11068821282E+04  0.65385664776E+03 0.  0.
         13    1    3    3    0    0 -0.91403629300E+02 -0.29704879646E+03 -0.61827710132E+03  0.69199652090E+03  0.00000000000E+00 0.  1.
          1    1    3    3  501    0  0.91403598336E+02  0.29704881951E+03 -0.27484076885E+03  0.41488560734E+03  0.00000000000E+00 0.  1.
         21    1    1    2  502  501  0.30963700369E-04 -0.23049723620E-04  0.46974507177E-03  0.47132841306E-03  0.00000000000E+00 0. -1.
<mgrwt>
<rscale>  1 0.65385665E+03</rscale>
<asrwt>0</asrwt>
<pdfrwt beam="1">  1        1 0.38866482E+00 0.65385665E+03</pdfrwt>
<pdfrwt beam="2">0</pdfrwt>
<totfact> 0.15013324E+00</totfact>
</mgrwt>
</event>
<event>
 6    1  0.2603926E-003  0.6473055E+03  0.7818608E-02  0.9811848E-01
          1   -1    0    0  502    0  0.00000000000E+00  0.00000000000E+00  0.10475126685E+03  0.10475126685E+03  0.00000000000E+00 0.  1.
         13   -1    0    0    0    0 -0.00000000000E+00 -0.00000000000E+00 -0.10000000000E+04  0.10000000000E+04  0.00000000000E+00 0.  1.
    9000005    2    1    2  501    0  0.26997746573E-04  0.28690056403E-04 -0.89524890700E+03  0.11047510886E+04  0.64730546287E+03 0.  0.
         13    1    3    3    0    0  0.19118752852E+03 -0.32517270233E+02 -0.88985551364E+03  0.91074303680E+03  0.00000000000E+00 0.  1.
          3    1    3    3  501    0 -0.19118750153E+03  0.32517298923E+02 -0.53933933651E+01  0.19400805180E+03  0.00000000000E+00 0.  1.
         21    1    1    2  502  501 -0.26997746586E-04 -0.28690056407E-04  0.17385318688E-03  0.17826084327E-03  0.00000000000E+00 0. -1.
<mgrwt>
<rscale>  1 0.64730546E+03</rscale>
<asrwt>0</asrwt>
<pdfrwt beam="1">  1        1 0.38091450E+00 0.64730546E+03</pdfrwt>
<pdfrwt beam="2">0</pdfrwt>
<totfact> 0.16265987E+00</totfact>
</mgrwt>
</event>
<event>
 6    1  0.2603926E-003  0.6498888E+03  0.7818608E-02  0.9806988E-01
          1   -1    0    0  502    0  0.00000000000E+00  0.00000000000E+00  0.10558885918E+03  0.10558885918E+03  0.00000000000E+00 0.  1.
         13   -1    0    0    0    0 -0.00000000000E+00 -0.00000000000E+00 -0.10000000000E+04  0.10000000000E+04  0.00000000000E+00 0.  1.
    9000005    2    1    2  501    0  0.11092628228E-04  0.14175563905E-05 -0.89441114626E+03  0.11055888467E+04  0.64988875931E+03 0.  0.
         13    1    3    3    0    0  0.16984944925E+03 -0.72584158265E+02  0.75952469817E+01  0.18486477008E+03  0.00000000000E+00 0.  1.
          1    1    3    3  501    0 -0.16984943816E+03  0.72584159683E+02 -0.90200639325E+03  0.92072407666E+03  0.00000000000E+00 0.  1.
         21    1    1    2  502  501 -0.11092628241E-04 -0.14175563964E-05  0.54414120636E-05  0.12436431670E-04  0.00000000000E+00 0.  1.
<mgrwt>
<rscale>  1 0.64988876E+03</rscale>
<asrwt>0</asrwt>
<pdfrwt beam="1">  1        1 0.38396030E+00 0.64988876E+03</pdfrwt>
<pdfrwt beam="2">0</pdfrwt>
<totfact> 0.15762271E+00</totfact>
</mgrwt>
</event>
<event>
 6    1  0.2603926E-003  0.6541419E+03  0.7818608E-02  0.9799038E-01
          1   -1    0    0  502    0  0.00000000000E+00  0.00000000000E+00  0.10697736946E+03  0.10697736946E+03  0.00000000000E+00 0.  1.
         13   -1    0    0    0    0 -0.00000000000E+00 -0.00000000000E+00 -0.10000000000E+04  0.10000000000E+04  0.00000000000E+00 0.  1.
    9000005    2    1    2  501    0  0.67233823074E-03 -0.14573123756E-02 -0.89302424086E+03  0.11069750959E+04  0.65414185637E+03 0.  0.
         13    1    3    3    0    0  0.23131140922E+03 -0.11163073326E+03 -0.10381822955E+03  0.27702818165E+03  0.00000000000E+00 0.  1.
          3    1    3    3  501    0 -0.23131073688E+03  0.11162927594E+03 -0.78920601131E+03  0.82994691428E+03  0.00000000000E+00 0.  1.
         21    1    1    2  502  501 -0.67233823074E-03  0.14573123756E-02  0.16103198241E-02  0.22735276538E-02  0.00000000000E+00 0. -1.
<mgrwt>
<rscale>  1 0.65414186E+03</rscale>
<asrwt>0</asrwt>
<pdfrwt beam="1">  1        1 0.38900944E+00 0.65414186E+03</pdfrwt>
<pdfrwt beam="2">0</pdfrwt>
<totfact> 0.14959826E+00</totfact>
</mgrwt>
</event>
<event>
 6    1  0.2603926E-003  0.6516718E+03  0.7818608E-02  0.9803647E-01
          1   -1    0    0  502    0  0.00000000000E+00  0.00000000000E+00  0.14535122478E+03  0.14535122478E+03  0.00000000000E+00 0.  1.
         13   -1    0    0    0    0 -0.00000000000E+00 -0.00000000000E+00 -0.10000000000E+04  0.10000000000E+04  0.00000000000E+00 0.  1.
    9000005    2    1    2  501    0 -0.23163337721E+01 -0.11475280002E+01 -0.89378378352E+03  0.11061309354E+04  0.65166671879E+03 0.  0.
         13    1    3    3    0    0  0.30230914506E+03 -0.11668097103E+03 -0.40429473250E+03  0.51813077395E+03  0.00000000000E+00 0.  1.
          1    1    3    3  501    0 -0.30462547883E+03  0.11553344303E+03 -0.48948905102E+03  0.58800016147E+03  0.00000000000E+00 0.  1.
         21    1    1    2  502  501  0.23163337721E+01  0.11475280002E+01  0.39135008301E+02  0.39220289358E+02  0.00000000000E+00 0.  1.
<mgrwt>
<rscale>  1 0.65167185E+03</rscale>
<asrwt>0</asrwt>
<pdfrwt beam="1">  1        1 0.52855102E+00 0.65167185E+03</pdfrwt>
<pdfrwt beam="2">0</pdfrwt>
<totfact> 0.33532960E-01</totfact>
</mgrwt>
</event>
<event>
 6    1  0.2603926E-003  0.6518155E+03  0.7818608E-02  0.9803379E-01
          1   -1    0    0  502    0  0.00000000000E+00  0.00000000000E+00  0.12861942041E+03  0.12861942041E+03  0.00000000000E+00 0.  1.
         13   -1    0    0    0    0 -0.00000000000E+00 -0.00000000000E+00 -0.10000000000E+04  0.10000000000E+04  0.00000000000E+00 0.  1.
    9000005    2    1    2  501    0 -0.16960735822E+02 -0.44750213346E+01 -0.88992047883E+03  0.11030964849E+04  0.65157939185E+03 0.  0.
         13    1    3    3    0    0 -0.63476447908E+02 -0.23509136954E+03 -0.82334070145E+03  0.85859601801E+03  0.00000000000E+00 0.  1.
          1    1    3    3  501    0  0.46515712085E+02  0.23061634821E+03 -0.66579777379E+02  0.24450046685E+03  0.00000000000E+00 0.  1.
         21    1    1    2  502  501  0.16960735822E+02  0.44750213346E+01  0.18539899234E+02  0.25522935552E+02  0.00000000000E+00 0. -1.
<mgrwt>
<rscale>  1 0.65181546E+03</rscale>
<asrwt>0</asrwt>
<pdfrwt beam="1">  1        1 0.46770797E+00 0.65181546E+03</pdfrwt>
<pdfrwt beam="2">0</pdfrwt>
<totfact> 0.65735671E-01</totfact>
</mgrwt>
</event>
<event>
 6    1  0.2603926E-003  0.6412040E+03  0.7818608E-02  0.9823426E-01
          1   -1    0    0  502    0  0.00000000000E+00  0.00000000000E+00  0.10278641884E+03  0.10278641884E+03  0.00000000000E+00 0.  1.
         13   -1    0    0    0    0 -0.00000000000E+00 -0.00000000000E+00 -0.10000000000E+04  0.10000000000E+04  0.00000000000E+00 0.  1.
    9000005    2    1    2  501    0  0.21802711740E-03  0.25911171907E-04 -0.89721434924E+03  0.11027856200E+04  0.64120397316E+03 0.  0.
         13    1    3    3    0    0  0.24665688846E+03 -0.28461412435E+02 -0.99783582354E+02  0.26759378903E+03  0.00000000000E+00 0.  1.
          1    1    3    3  501    0 -0.24665667043E+03  0.28461438346E+02 -0.79743076688E+03  0.83519183097E+03  0.00000000000E+00 0.  1.
         21    1    1    2  502  501 -0.21802711739E-03 -0.25911171905E-04  0.76808065413E-03  0.79884610783E-03  0.00000000000E+00 0. -1.
<mgrwt>
<rscale>  1 0.64120397E+03</rscale>
<asrwt>0</asrwt>
<pdfrwt beam="1">  1        1 0.37376958E+00 0.64120397E+03</pdfrwt>
<pdfrwt beam="2">0</pdfrwt>
<totfact> 0.17508605E+00</totfact>
</mgrwt>
</event>
<event>
 6    1  0.2603926E-003  0.6474421E+03  0.7818608E-02  0.9811591E-01
          1   -1    0    0  502    0  0.00000000000E+00  0.00000000000E+00  0.10479538339E+03  0.10479538339E+03  0.00000000000E+00 0.  1.
         13   -1    0    0    0    0 -0.00000000000E+00 -0.00000000000E+00 -0.10000000000E+04  0.10000000000E+04  0.00000000000E+00 0.  1.
    9000005    2    1    2  501    0 -0.15701845926E-04  0.22141468747E-04 -0.89520468162E+03  0.11047953129E+04  0.64744209124E+03 0.  0.
         13    1    3    3    0    0 -0.34671854828E+01 -0.11447876828E+03 -0.96427231570E+03  0.97105020910E+03  0.00000000000E+00 0.  1.
          1    1    3    3  501    0  0.34671697809E+01  0.11447879042E+03  0.69067634086E+02  0.13374510384E+03  0.00000000000E+00 0.  1.
         21    1    1    2  502  501  0.15701845926E-04 -0.22141468744E-04  0.65006537431E-04  0.70446025525E-04  0.00000000000E+00 0.  1.
<mgrwt>
<rscale>  1 0.64744209E+03</rscale>
<asrwt>0</asrwt>
<pdfrwt beam="1">  1        1 0.38107492E+00 0.64744209E+03</pdfrwt>
<pdfrwt beam="2">0</pdfrwt>
<totfact> 0.16239077E+00</totfact>
</mgrwt>
</event>
<event>
 6    1  0.2603926E-003  0.6499579E+03  0.7818608E-02  0.9806858E-01
          1   -1    0    0  502    0  0.00000000000E+00  0.00000000000E+00  0.12193920186E+03  0.12193920186E+03  0.00000000000E+00 0.  1.
         13   -1    0    0    0    0 -0.00000000000E+00 -0.00000000000E+00 -0.10000000000E+04  0.10000000000E+04  0.00000000000E+00 0.  1.
    9000005    2    1    2  501    0 -0.52142202740E+00 -0.27041425833E+00 -0.89438285770E+03  0.11056065771E+04  0.64995758482E+03 0.  0.
         13    1    3    3    0    0  0.23649965307E+02 -0.30358278137E+03 -0.25369547439E+03  0.39633725504E+03  0.00000000000E+00 0.  1.
          1    1    3    3  501    0 -0.24171387334E+02  0.30331236712E+03 -0.64068738331E+03  0.70926932201E+03  0.00000000000E+00 0.  1.
         21    1    1    2  502  501  0.52142202740E+00  0.27041425833E+00  0.16322059563E+02  0.16332624810E+02  0.00000000000E+00 0. -1.
<mgrwt>
<rscale>  1 0.64995785E+03</rscale>
<asrwt>0</asrwt>
<pdfrwt beam="1">  1        1 0.44341621E+00 0.64995785E+03</pdfrwt>
<pdfrwt beam="2">0</pdfrwt>
<totfact> 0.85178179E-01</totfact>
</mgrwt>
</event>
<event>
 6    1  0.2603926E-003  0.6617946E+03  0.7818608E-02  0.9784896E-01
          1   -1    0    0  502    0  0.00000000000E+00  0.00000000000E+00  0.10949320934E+03  0.10949320934E+03  0.00000000000E+00 0.  1.
         13   -1    0    0    0    0 -0.00000000000E+00 -0.00000000000E+00 -0.10000000000E+04  0.10000000000E+04  0.00000000000E+00 0.  1.
    9000005    2    1    2  501    0 -0.85241707311E-05 -0.17916625268E-04 -0.89050696522E+03  0.11094930337E+04  0.66179463326E+03 0.  0.
         13    1    3    3    0    0  0.61226885100E+02  0.32515794316E+03 -0.45208573254E+03  0.56023024644E+03  0.00000000000E+00 0.  1.
          3    1    3    3  501    0 -0.61226893624E+02 -0.32515796107E+03 -0.43842123268E+03  0.54926278722E+03  0.00000000000E+00 0.  1.
         21    1    1    2  502  501  0.85241707312E-05  0.17916625306E-04  0.17455904571E-03  0.17568303102E-03  0.00000000000E+00 0. -1.
<mgrwt>
<rscale>  1 0.66179463E+03</rscale>
<asrwt>0</asrwt>
<pdfrwt beam="1">  1        1 0.39815796E+00 0.66179463E+03</pdfrwt>
<pdfrwt beam="2">0</pdfrwt>
<totfact> 0.13603714E+00</totfact>
</mgrwt>
</event>
<event>
 6    1  0.2603926E-003  0.6698540E+03  0.7818608E-02  0.9770222E-01
          1   -1    0    0  502    0  0.00000000000E+00  0.00000000000E+00  0.11217623892E+03  0.11217623892E+03  0.00000000000E+00 0.  1.
         13   -1    0    0    0    0 -0.00000000000E+00 -0.00000000000E+00 -0.10000000000E+04  0.10000000000E+04  0.00000000000E+00 0.  1.
    9000005    2    1    2  501    0 -0.13545404983E-04 -0.85631234015E-06 -0.88782391687E+03  0.11121760825E+04  0.66985396259E+03 0.  0.
         13    1    3    3    0    0  0.20671635511E+03  0.26340037069E+03 -0.43055968582E+03  0.54542923446E+03  0.00000000000E+00 0.  1.
          1    1    3    3  501    0 -0.20671636866E+03 -0.26340037155E+03 -0.45726423105E+03  0.56674684808E+03  0.00000000000E+00 0.  1.
         21    1    1    2  502  501  0.13545404960E-04  0.85631231731E-06  0.15579025098E-03  0.15638034904E-03  0.00000000000E+00 0. -1.
<mgrwt>
<rscale>  1 0.66985396E+03</rscale>
<asrwt>0</asrwt>
<pdfrwt beam="1">  1        1 0.40791446E+00 0.66985396E+03</pdfrwt>
<pdfrwt beam="2">0</pdfrwt>
<totfact> 0.12286158E+00</totfact>
</mgrwt>
</event>
<event>
 6    1  0.2603926E-003  0.6306667E+03  0.7818608E-02  0.9843749E-01
          1   -1    0    0  502    0  0.00000000000E+00  0.00000000000E+00  0.10285371445E+03  0.10285371445E+03  0.00000000000E+00 0.  1.
         13   -1    0    0    0    0 -0.00000000000E+00 -0.00000000000E+00 -0.10000000000E+04  0.10000000000E+04  0.00000000000E+00 0.  1.
    9000005    2    1    2  501    0 -0.17568303801E-01 -0.11864623095E+00 -0.90056372790E+03  0.10994341680E+04  0.63066666903E+03 0.  0.
         13    1    3    3    0    0  0.93536566558E+02 -0.20458028172E+03 -0.83565732636E+03  0.86540473078E+03  0.00000000000E+00 0.  1.
          1    1    3    3  501    0 -0.93554134862E+02  0.20446163549E+03 -0.64906401533E+02  0.23402943724E+03  0.00000000000E+00 0.  1.
         21    1    1    2  502  501  0.17568303801E-01  0.11864623095E+00  0.34174423440E+01  0.34195464243E+01  0.00000000000E+00 0. -1.
<mgrwt>
<rscale>  1 0.63066668E+03</rscale>
<asrwt>0</asrwt>
<pdfrwt beam="1">  1        1 0.37401430E+00 0.63066668E+03</pdfrwt>
<pdfrwt beam="2">0</pdfrwt>
<totfact> 0.17499180E+00</totfact>
</mgrwt>
</event>
<event>
 6    1  0.2603926E-003  0.6424661E+03  0.7818608E-02  0.9821020E-01
          1   -1    0    0  502    0  0.00000000000E+00  0.00000000000E+00  0.10319837326E+03  0.10319837326E+03  0.00000000000E+00 0.  1.
         13   -1    0    0    0    0 -0.00000000000E+00 -0.00000000000E+00 -0.10000000000E+04  0.10000000000E+04  0.00000000000E+00 0.  1.
    9000005    2    1    2  501    0 -0.33713834429E-03 -0.84999890214E-03 -0.89680929187E+03  0.11031906538E+04  0.64246611786E+03 0.  0.
         13    1    3    3    0    0  0.13355041042E+03  0.14028178765E+03 -0.88845538085E+03  0.90932263572E+03  0.00000000000E+00 0.  1.
          1    1    3    3  501    0 -0.13355074756E+03 -0.14028263765E+03 -0.83539110230E+01  0.19386801806E+03  0.00000000000E+00 0.  1.
         21    1    1    2  502  501  0.33713834430E-03  0.84999890214E-03  0.76651293445E-02  0.77194797923E-02  0.00000000000E+00 0. -1.
<mgrwt>
<rscale>  1 0.64246612E+03</rscale>
<asrwt>0</asrwt>
<pdfrwt beam="1">  1        1 0.37526760E+00 0.64246612E+03</pdfrwt>
<pdfrwt beam="2">0</pdfrwt>
<totfact> 0.17240853E+00</totfact>
</mgrwt>
</event>
<event>
 6    1  0.2603926E-003  0.6531074E+03  0.7818608E-02  0.9800966E-01
          3   -1    0    0  502    0  0.00000000000E+00  0.00000000000E+00  0.10663734372E+03  0.10663734372E+03  0.00000000000E+00 0.  1.
         13   -1    0    0    0    0 -0.00000000000E+00 -0.00000000000E+00 -0.10000000000E+04  0.10000000000E+04  0.00000000000E+00 0.  1.
    9000005    2    1    2  501    0 -0.26166017619E-05  0.82428887254E-05 -0.89336267180E+03  0.11066373260E+04  0.65310742441E+03 0.  0.
         13    1    3    3    0    0  0.15337256657E+02 -0.30948790258E+03 -0.27207126539E+03  0.41235999653E+03  0.00000000000E+00 0.  1.
          3    1    3    3  501    0 -0.15337259274E+02  0.30948791083E+03 -0.62129140641E+03  0.69427732942E+03  0.00000000000E+00 0.  1.
         21    1    1    2  502  501  0.26166017620E-05 -0.82428887440E-05  0.15523365580E-04  0.17769825507E-04  0.00000000000E+00 0.  1.
<mgrwt>
<rscale>  1 0.65310742E+03</rscale>
<asrwt>0</asrwt>
<pdfrwt beam="1">  1        3 0.38777298E+00 0.65310742E+03</pdfrwt>
<pdfrwt beam="2">0</pdfrwt>
<totfact> 0.68644234E-02</totfact>
</mgrwt>
</event>
<event>
 6    1  0.2603926E-003  0.6098457E+03  0.7818608E-02  0.9885187E-01
          1   -1    0    0  502    0  0.00000000000E+00  0.00000000000E+00  0.94037173005E+02  0.94037173005E+02  0.00000000000E+00 0.  1.
         13   -1    0    0    0    0 -0.00000000000E+00 -0.00000000000E+00 -0.10000000000E+04  0.10000000000E+04  0.00000000000E+00 0.  1.
    9000005    2    1    2  501    0  0.62067802050E+00  0.29077928751E+01 -0.90401100814E+03  0.10904804755E+04  0.60983844091E+03 0.  0.
         13    1    3    3    0    0 -0.13978433294E+03  0.20103470120E+03 -0.78057028356E+03  0.81807369986E+03  0.00000000000E+00 0.  1.
          1    1    3    3  501    0  0.14040501096E+03 -0.19812690833E+03 -0.12344072458E+03  0.27240677560E+03  0.00000000000E+00 0.  1.
         21    1    1    2  502  501 -0.62067802050E+00 -0.29077928751E+01 -0.19518188539E+01  0.35566975480E+01  0.00000000000E+00 0. -1.
<mgrwt>
<rscale>  1 0.60984569E+03</rscale>
<asrwt>0</asrwt>
<pdfrwt beam="1">  1        1 0.34195408E+00 0.60984569E+03</pdfrwt>
<pdfrwt beam="2">0</pdfrwt>
<totfact> 0.24252659E+00</totfact>
</mgrwt>
</event>
<event>
 6    1  0.2603926E-003  0.6476987E+03  0.7818608E-02  0.9811107E-01
          1   -1    0    0  502    0  0.00000000000E+00  0.00000000000E+00  0.10592375000E+03  0.10592375000E+03  0.00000000000E+00 0.  1.
         13   -1    0    0    0    0 -0.00000000000E+00 -0.00000000000E+00 -0.10000000000E+04  0.10000000000E+04  0.00000000000E+00 0.  1.
    9000005    2    1    2  501    0 -0.75641314453E-01  0.14753120593E-01 -0.89512003790E+03  0.11048771209E+04  0.64769866769E+03 0.  0.
         13    1    3    3    0    0 -0.32020313870E+03  0.41698199184E+02 -0.40464598806E+03  0.51769408486E+03  0.00000000000E+00 0.  1.
          1    1    3    3  501    0  0.32012749739E+03 -0.41683446064E+02 -0.49047404984E+03  0.58718303605E+03  0.00000000000E+00 0.  1.
         21    1    1    2  502  501  0.75641314453E-01 -0.14753120593E-01  0.10437878956E+01  0.10466290814E+01  0.00000000000E+00 0.  1.
<mgrwt>
<rscale>  1 0.64769867E+03</rscale>
<asrwt>0</asrwt>
<pdfrwt beam="1">  1        1 0.38517808E+00 0.64769867E+03</pdfrwt>
<pdfrwt beam="2">0</pdfrwt>
<totfact> 0.15574335E+00</totfact>
</mgrwt>
</event>
<event>
 6    1  0.2603926E-003  0.7031724E+03  0.7818608E-02  0.9711822E-01
          1   -1    0    0  502    0  0.00000000000E+00  0.00000000000E+00  0.12361295321E+03  0.12361295321E+03  0.00000000000E+00 0.  1.
         13   -1    0    0    0    0 -0.00000000000E+00 -0.00000000000E+00 -0.10000000000E+04  0.10000000000E+04  0.00000000000E+00 0.  1.
    9000005    2    1    2  501    0  0.43481179830E-04  0.18848623824E-04 -0.87638712928E+03  0.11236128581E+04  0.70317242158E+03 0.  0.
         13    1    3    3    0    0 -0.32444139684E+03  0.13530749840E+03 -0.42777479648E+03  0.55368006611E+03  0.00000000000E+00 0.  1.
          1    1    3    3  501    0  0.32444144032E+03 -0.13530747955E+03 -0.44861233280E+03  0.56993279197E+03  0.00000000000E+00 0.  1.
         21    1    1    2  502  501 -0.43481179815E-04 -0.18848623836E-04  0.82487731356E-04  0.95132063169E-04  0.00000000000E+00 0.  1.
<mgrwt>
<rscale>  1 0.70317242E+03</rscale>
<asrwt>0</asrwt>
<pdfrwt beam="1">  1        1 0.44950260E+00 0.70317242E+03</pdfrwt>
<pdfrwt beam="2">0</pdfrwt>
<totfact> 0.79016945E-01</totfact>
</mgrwt>
</event>
<event>
 6    1  0.2603926E-003  0.6536304E+03  0.7818608E-02  0.9799991E-01
          1   -1    0    0  502    0  0.00000000000E+00  0.00000000000E+00  0.11522045151E+03  0.11522045151E+03  0.00000000000E+00 0.  1.
         13   -1    0    0    0    0 -0.00000000000E+00 -0.00000000000E+00 -0.10000000000E+04  0.10000000000E+04  0.00000000000E+00 0.  1.
    9000005    2    1    2  501    0 -0.17071324227E+01 -0.67097299658E-01 -0.89309571427E+03  0.11067306096E+04  0.65362815765E+03 0.  0.
         13    1    3    3    0    0 -0.17103480148E+03  0.27776434514E+03 -0.49108391620E+03  0.58955012298E+03  0.00000000000E+00 0.  1.
          1    1    3    3  501    0  0.16932766906E+03 -0.27783144243E+03 -0.40201179807E+03  0.51718048658E+03  0.00000000000E+00 0.  1.
         21    1    1    2  502  501  0.17071324227E+01  0.67097299658E-01  0.83161657760E+01  0.84898419520E+01  0.00000000000E+00 0.  1.
<mgrwt>
<rscale>  1 0.65363039E+03</rscale>
<asrwt>0</asrwt>
<pdfrwt beam="1">  1        1 0.41898434E+00 0.65363039E+03</pdfrwt>
<pdfrwt beam="2">0</pdfrwt>
<totfact> 0.10990694E+00</totfact>
</mgrwt>
</event>
<event>
 6    1  0.2603926E-003  0.6466773E+03  0.7818608E-02  0.9813034E-01
          1   -1    0    0  502    0  0.00000000000E+00  0.00000000000E+00  0.10454837442E+03  0.10454837442E+03  0.00000000000E+00 0.  1.
         13   -1    0    0    0    0 -0.00000000000E+00 -0.00000000000E+00 -0.10000000000E+04  0.10000000000E+04  0.00000000000E+00 0.  1.
    9000005    2    1    2  501    0  0.13177296671E-03 -0.53616223892E-03 -0.89545195408E+03  0.11045477320E+04  0.64667726890E+03 0.  0.
         13    1    3    3    0    0  0.31247620274E+03 -0.71176459870E+02 -0.37444990812E+03  0.49286935329E+03  0.00000000000E+00 0.  1.
          1    1    3    3  501    0 -0.31247607097E+03  0.71175923708E+02 -0.52100204596E+03  0.61167837868E+03  0.00000000000E+00 0.  1.
         21    1    1    2  502  501 -0.13177296672E-03  0.53616223892E-03  0.32850710854E-03  0.64245698810E-03  0.00000000000E+00 0.  1.
<mgrwt>
<rscale>  1 0.64667727E+03</rscale>
<asrwt>0</asrwt>
<pdfrwt beam="1">  1        1 0.38017671E+00 0.64667727E+03</pdfrwt>
<pdfrwt beam="2">0</pdfrwt>
<totfact> 0.16390296E+00</totfact>
</mgrwt>
</event>
<event>
 6    1  0.2603926E-003  0.6588172E+03  0.7818608E-02  0.9790374E-01
          1   -1    0    0  502    0  0.00000000000E+00  0.00000000000E+00  0.10879135362E+03  0.10879135362E+03  0.00000000000E+00 0.  1.
         13   -1    0    0    0    0 -0.00000000000E+00 -0.00000000000E+00 -0.10000000000E+04  0.10000000000E+04  0.00000000000E+00 0.  1.
    9000005    2    1    2  501    0  0.55946097282E-01  0.18012832200E+00 -0.89145450156E+03  0.11084814812E+04  0.65881714469E+03 0.  0.
         13    1    3    3    0    0 -0.85166257225E+02 -0.31007456313E+03 -0.56516751193E+03  0.65024137258E+03  0.00000000000E+00 0.  1.
          3    1    3    3  501    0  0.85222203322E+02  0.31025469145E+03 -0.32628698963E+03  0.45824010858E+03  0.00000000000E+00 0.  1.
         21    1    1    2  502  501 -0.55946097282E-01 -0.18012832200E+00  0.24585518134E+00  0.30987247116E+00  0.00000000000E+00 0. -1.
<mgrwt>
<rscale>  1 0.65881717E+03</rscale>
<asrwt>0</asrwt>
<pdfrwt beam="1">  1        1 0.39560576E+00 0.65881717E+03</pdfrwt>
<pdfrwt beam="2">0</pdfrwt>
<totfact> 0.13972037E+00</totfact>
</mgrwt>
</event>
<event>
 6    1  0.2603926E-003  0.6390009E+03  0.7818608E-02  0.9827640E-01
          1   -1    0    0  502    0  0.00000000000E+00  0.00000000000E+00  0.10746962688E+03  0.10746962688E+03  0.00000000000E+00 0.  1.
         13   -1    0    0    0    0 -0.00000000000E+00 -0.00000000000E+00 -0.10000000000E+04  0.10000000000E+04  0.00000000000E+00 0.  1.
    9000005    2    1    2  501    0  0.11432371769E+00  0.48321128431E+00 -0.89790686289E+03  0.11020702561E+04  0.63900067942E+03 0.  0.
         13    1    3    3    0    0 -0.13937515388E+03  0.13138674236E+03 -0.89025179314E+03  0.91062405238E+03  0.00000000000E+00 0.  1.
          3    1    3    3  501    0  0.13948947759E+03 -0.13090353108E+03 -0.76550697474E+01  0.19144620367E+03  0.00000000000E+00 0.  1.
         21    1    1    2  502  501 -0.11432371769E+00 -0.48321128431E+00  0.53764897725E+01  0.53993708274E+01  0.00000000000E+00 0. -1.
<mgrwt>
<rscale>  1 0.63900087E+03</rscale>
<asrwt>0</asrwt>
<pdfrwt beam="1">  1        1 0.39079947E+00 0.63900087E+03</pdfrwt>
<pdfrwt beam="2">0</pdfrwt>
<totfact> 0.14730703E+00</totfact>
</mgrwt>
</event>
<event>
 6    1  0.2603926E-003  0.6498567E+03  0.7818608E-02  0.9807048E-01
          1   -1    0    0  502    0  0.00000000000E+00  0.00000000000E+00  0.10557987452E+03  0.10557987452E+03  0.00000000000E+00 0.  1.
         13   -1    0    0    0    0 -0.00000000000E+00 -0.00000000000E+00 -0.10000000000E+04  0.10000000000E+04  0.00000000000E+00 0.  1.
    9000005    2    1    2  501    0 -0.71617880479E-05  0.13326242055E-03 -0.89442155743E+03  0.11055784364E+04  0.64985672003E+03 0.  0.
         13    1    3    3    0    0 -0.84273464982E+02 -0.15375035707E+03  0.18193998481E+02  0.17627311417E+03  0.00000000000E+00 0.  1.
          1    1    3    3  501    0  0.84273457821E+02  0.15375049033E+03 -0.91261555591E+03  0.92930532219E+03  0.00000000000E+00 0.  1.
         21    1    1    2  502  501  0.71617880509E-05 -0.13326242053E-03  0.14319445368E-02  0.14381499645E-02  0.00000000000E+00 0.  1.
<mgrwt>
<rscale>  1 0.64985672E+03</rscale>
<asrwt>0</asrwt>
<pdfrwt beam="1">  1        1 0.38392763E+00 0.64985672E+03</pdfrwt>
<pdfrwt beam="2">0</pdfrwt>
<totfact> 0.15767607E+00</totfact>
</mgrwt>
</event>
<event>
 6    1  0.2603926E-003  0.6504110E+03  0.7818608E-02  0.9806008E-01
          1   -1    0    0  502    0  0.00000000000E+00  0.00000000000E+00  0.10581120100E+03  0.10581120100E+03  0.00000000000E+00 0.  1.
         13   -1    0    0    0    0 -0.00000000000E+00 -0.00000000000E+00 -0.10000000000E+04  0.10000000000E+04  0.00000000000E+00 0.  1.
    9000005    2    1    2  501    0  0.52240269655E-02 -0.31882034196E-03 -0.89424124971E+03  0.11057584898E+04  0.65041096631E+03 0.  0.
         13    1    3    3    0    0  0.23435501442E+03 -0.15456243334E+03 -0.16803851287E+03  0.32718306862E+03  0.00000000000E+00 0.  1.
          1    1    3    3  501    0 -0.23434979039E+03  0.15456211452E+03 -0.72620273684E+03  0.77857542120E+03  0.00000000000E+00 0.  1.
         21    1    1    2  502  501 -0.52240269654E-02  0.31882034194E-03  0.52450709614E-01  0.52711185180E-01  0.00000000000E+00 0. -1.
<mgrwt>
<rscale>  1 0.65041097E+03</rscale>
<asrwt>0</asrwt>
<pdfrwt beam="1">  1        1 0.38476882E+00 0.65041097E+03</pdfrwt>
<pdfrwt beam="2">0</pdfrwt>
<totfact> 0.15631541E+00</totfact>
</mgrwt>
</event>
<event>
 6    1  0.2603926E-003  0.6479459E+03  0.7818608E-02  0.9810641E-01
          1   -1    0    0  502    0  0.00000000000E+00  0.00000000000E+00  0.10542308486E+03  0.10542308486E+03  0.00000000000E+00 0.  1.
         13   -1    0    0    0    0 -0.00000000000E+00 -0.00000000000E+00 -0.10000000000E+04  0.10000000000E+04  0.00000000000E+00 0.  1.
    9000005    2    1    2  501    0  0.66644964972E-02  0.12952093406E-01 -0.89504140719E+03  0.11049583645E+04  0.64794588231E+03 0.  0.
         13    1    3    3    0    0 -0.19087870442E+03  0.25988587138E+03 -0.39399820572E+03  0.50912663656E+03  0.00000000000E+00 0.  1.
          1    1    3    3  501    0  0.19088536892E+03 -0.25987291928E+03 -0.50104320147E+03  0.59583172791E+03  0.00000000000E+00 0.  1.
         21    1    1    2  502  501 -0.66644964972E-02 -0.12952093406E-01  0.46449205534E+00  0.46472039090E+00  0.00000000000E+00 0.  1.
<mgrwt>
<rscale>  1 0.64794588E+03</rscale>
<asrwt>0</asrwt>
<pdfrwt beam="1">  1        1 0.38335748E+00 0.64794588E+03</pdfrwt>
<pdfrwt beam="2">0</pdfrwt>
<totfact> 0.15864962E+00</totfact>
</mgrwt>
</event>
<event>
 6    1  0.2603926E-003  0.6017075E+03  0.7818608E-02  0.9901870E-01
          1   -1    0    0  502    0  0.00000000000E+00  0.00000000000E+00  0.90804834341E+02  0.90804834341E+02  0.00000000000E+00 0.  1.
         13   -1    0    0    0    0 -0.00000000000E+00 -0.00000000000E+00 -0.10000000000E+04  0.10000000000E+04  0.00000000000E+00 0.  1.
    9000005    2    1    2  501    0 -0.49187169116E-02  0.10127648406E-01 -0.90948690266E+03  0.10905128802E+04  0.60170750000E+03 0.  0.
         13    1    3    3    0    0  0.25359686460E+03  0.40270004784E+02 -0.73887869517E+03  0.78222424483E+03  0.00000000000E+00 0.  1.
          3    1    3    3  501    0 -0.25360178332E+03 -0.40259877136E+02 -0.17060820749E+03  0.30828863533E+03  0.00000000000E+00 0.  1.
         21    1    1    2  502  501  0.49187169116E-02 -0.10127648406E-01  0.29173700495E+00  0.29195417979E+00  0.00000000000E+00 0. -1.
<mgrwt>
<rscale>  1 0.60170750E+03</rscale>
<asrwt>0</asrwt>
<pdfrwt beam="1">  1        1 0.33020009E+00 0.60170750E+03</pdfrwt>
<pdfrwt beam="2">0</pdfrwt>
<totfact> 0.27313611E+00</totfact>
</mgrwt>
</event>
<event>
 6    1  0.2603926E-003  0.6434312E+03  0.7818608E-02  0.9819184E-01
          1   -1    0    0  502    0  0.00000000000E+00  0.00000000000E+00  0.10383893920E+03  0.10383893920E+03  0.00000000000E+00 0.  1.
         13   -1    0    0    0    0 -0.00000000000E+00 -0.00000000000E+00 -0.10000000000E+04  0.10000000000E+04  0.00000000000E+00 0.  1.
    9000005    2    1    2  501    0  0.10715408461E-01 -0.31405045858E-01 -0.89649817875E+03  0.11035001921E+04  0.64343118384E+03 0.  0.
         13    1    3    3    0    0  0.44345457909E+02  0.85420588643E+02 -0.97471914401E+03  0.97945934388E+03  0.00000000000E+00 0.  1.
          1    1    3    3  501    0 -0.44334742500E+02 -0.85451993689E+02  0.78220965266E+02  0.12404084821E+03  0.00000000000E+00 0.  1.
         21    1    1    2  502  501 -0.10715408461E-01  0.31405045858E-01  0.33711795079E+00  0.33874711753E+00  0.00000000000E+00 0. -1.
<mgrwt>
<rscale>  1 0.64343118E+03</rscale>
<asrwt>0</asrwt>
<pdfrwt beam="1">  1        1 0.37759694E+00 0.64343118E+03</pdfrwt>
<pdfrwt beam="2">0</pdfrwt>
<totfact> 0.16835345E+00</totfact>
</mgrwt>
</event>
<event>
 6    1  0.2603926E-003  0.6612917E+03  0.7818608E-02  0.9785819E-01
          1   -1    0    0  502    0  0.00000000000E+00  0.00000000000E+00  0.10933738715E+03  0.10933738715E+03  0.00000000000E+00 0.  1.
         13   -1    0    0    0    0 -0.00000000000E+00 -0.00000000000E+00 -0.10000000000E+04  0.10000000000E+04  0.00000000000E+00 0.  1.
    9000005    2    1    2  501    0 -0.45029752604E-03  0.15266239907E-03 -0.89067333165E+03  0.11093266578E+04  0.66129165275E+03 0.  0.
         13    1    3    3    0    0 -0.23564168019E+03 -0.20426338490E+03 -0.26099169335E+03  0.40665365589E+03  0.00000000000E+00 0.  1.
          1    1    3    3  501    0  0.23564122989E+03  0.20426353756E+03 -0.62968163830E+03  0.70267300191E+03  0.00000000000E+00 0.  1.
         21    1    1    2  502  501  0.45029752604E-03 -0.15266239908E-03  0.10718804959E-01  0.10729345433E-01  0.00000000000E+00 0. -1.
<mgrwt>
<rscale>  1 0.66129165E+03</rscale>
<asrwt>0</asrwt>
<pdfrwt beam="1">  1        1 0.39759134E+00 0.66129165E+03</pdfrwt>
<pdfrwt beam="2">0</pdfrwt>
<totfact> 0.13684281E+00</totfact>
</mgrwt>
</event>
<event>
 6    1  0.2603926E-003  0.6483506E+03  0.7818608E-02  0.9809879E-01
          1   -1    0    0  502    0  0.00000000000E+00  0.00000000000E+00  0.10555206680E+03  0.10555206680E+03  0.00000000000E+00 0.  1.
         13   -1    0    0    0    0 -0.00000000000E+00 -0.00000000000E+00 -0.10000000000E+04  0.10000000000E+04  0.00000000000E+00 0.  1.
    9000005    2    1    2  501    0  0.42416780360E-01 -0.22985963621E-01 -0.89490898539E+03  0.11050884973E+04  0.64835059380E+03 0.  0.
         13    1    3    3    0    0  0.27768313709E+02  0.30693922451E+03 -0.61874651447E+03  0.69125249798E+03  0.00000000000E+00 0.  1.
          3    1    3    3  501    0 -0.27725896928E+02 -0.30696221047E+03 -0.27616247092E+03  0.41383599935E+03  0.00000000000E+00 0.  1.
         21    1    1    2  502  501 -0.42416780360E-01  0.22985963621E-01  0.46105218683E+00  0.46356947350E+00  0.00000000000E+00 0.  1.
<mgrwt>
<rscale>  1 0.64835060E+03</rscale>
<asrwt>0</asrwt>
<pdfrwt beam="1">  1        1 0.38382651E+00 0.64835060E+03</pdfrwt>
<pdfrwt beam="2">0</pdfrwt>
<totfact> 0.15788233E+00</totfact>
</mgrwt>
</event>
<event>
 6    1  0.2603926E-003  0.6506310E+03  0.7818608E-02  0.9805596E-01
          1   -1    0    0  502    0  0.00000000000E+00  0.00000000000E+00  0.10586148068E+03  0.10586148068E+03  0.00000000000E+00 0.  1.
         13   -1    0    0    0    0 -0.00000000000E+00 -0.00000000000E+00 -0.10000000000E+04  0.10000000000E+04  0.00000000000E+00 0.  1.
    9000005    2    1    2  501    0  0.13338932304E-02  0.69068087612E-03 -0.89416978928E+03  0.11058301747E+04  0.65063104992E+03 0.  0.
         13    1    3    3    0    0 -0.12768823771E+03 -0.19204953997E+03 -0.57122319091E+02  0.23759265811E+03  0.00000000000E+00 0.  1.
          1    1    3    3  501    0  0.12768957160E+03  0.19205023065E+03 -0.83704747019E+03  0.86823751655E+03  0.00000000000E+00 0.  1.
         21    1    1    2  502  501 -0.13338932304E-02 -0.69068087612E-03  0.31269962780E-01  0.31306019924E-01  0.00000000000E+00 0. -1.
<mgrwt>
<rscale>  1 0.65063105E+03</rscale>
<asrwt>0</asrwt>
<pdfrwt beam="1">  1        1 0.38495165E+00 0.65063105E+03</pdfrwt>
<pdfrwt beam="2">0</pdfrwt>
<totfact> 0.15601828E+00</totfact>
</mgrwt>
</event>
<event>
 6    1  0.2603926E-003  0.6319821E+03  0.7818608E-02  0.9841188E-01
          1   -1    0    0  502    0  0.00000000000E+00  0.00000000000E+00  0.16612707998E+03  0.16612707998E+03  0.00000000000E+00 0.  1.
         13   -1    0    0    0    0 -0.00000000000E+00 -0.00000000000E+00 -0.10000000000E+04  0.10000000000E+04  0.00000000000E+00 0.  1.
    9000005    2    1    2  501    0  0.84685224723E+00  0.25434544354E+02 -0.89745222144E+03  0.10976437917E+04  0.63146953251E+03 0.  0.
         13    1    3    3    0    0 -0.25774679264E+03  0.16671492003E+03 -0.28904297353E+03  0.42163149103E+03  0.00000000000E+00 0.  1.
          1    1    3    3  501    0  0.25859364489E+03 -0.14128037567E+03 -0.60840924790E+03  0.67601230067E+03  0.00000000000E+00 0.  1.
         21    1    1    2  502  501 -0.84685224723E+00 -0.25434544354E+02  0.63579301413E+02  0.68483288278E+02  0.00000000000E+00 0.  1.
<mgrwt>
<rscale>  1 0.63198212E+03</rscale>
<asrwt>0</asrwt>
<pdfrwt beam="1">  1        1 0.60409975E+00 0.63198212E+03</pdfrwt>
<pdfrwt beam="2">0</pdfrwt>
<totfact> 0.13640754E-01</totfact>
</mgrwt>
</event>
<event>
 6    1  0.2603926E-003  0.6424823E+03  0.7818608E-02  0.9820989E-01
          1   -1    0    0  502    0  0.00000000000E+00  0.00000000000E+00  0.10394499195E+03  0.10394499195E+03  0.00000000000E+00 0.  1.
         13   -1    0    0    0    0 -0.00000000000E+00 -0.00000000000E+00 -0.10000000000E+04  0.10000000000E+04  0.00000000000E+00 0.  1.
    9000005    2    1    2  501    0  0.46395506162E+00 -0.30485771362E+00 -0.89668899590E+03  0.11031022980E+04  0.64248207465E+03 0.  0.
         13    1    3    3    0    0 -0.19811967733E+03  0.11180722005E+03 -0.59126190868E+02  0.23504928727E+03  0.00000000000E+00 0.  1.
          1    1    3    3  501    0  0.19858363239E+03 -0.11211207776E+03 -0.83756280504E+03  0.86805301071E+03  0.00000000000E+00 0.  1.
         21    1    1    2  502  501 -0.46395506162E+00  0.30485771362E+00  0.63398785453E+00  0.84269396844E+00  0.00000000000E+00 0. -1.
<mgrwt>
<rscale>  1 0.64248231E+03</rscale>
<asrwt>0</asrwt>
<pdfrwt beam="1">  1        1 0.37798259E+00 0.64248231E+03</pdfrwt>
<pdfrwt beam="2">0</pdfrwt>
<totfact> 0.16772512E+00</totfact>
</mgrwt>
</event>
<event>
 6    1  0.2603926E-003  0.5373647E+03  0.7818608E-02  0.1004462E+00
          1   -1    0    0  502    0  0.00000000000E+00  0.00000000000E+00  0.72208857633E+02  0.72208857633E+02  0.00000000000E+00 0.  1.
         13   -1    0    0    0    0 -0.00000000000E+00 -0.00000000000E+00 -0.10000000000E+04  0.10000000000E+04  0.00000000000E+00 0.  1.
    9000005    2    1    2  501    0  0.10458571657E-03  0.87025029946E-03 -0.92780978993E+03  0.10721901895E+04  0.53736467702E+03 0.  0.
         13    1    3    3    0    0  0.23347034448E+03 -0.12541395395E+03 -0.37572673415E+03  0.45979086589E+03  0.00000000000E+00 0.  1.
          3    1    3    3  501    0 -0.23347023990E+03  0.12541482420E+03 -0.55208305578E+03  0.61239932359E+03  0.00000000000E+00 0.  1.
         21    1    1    2  502  501 -0.10458571659E-03 -0.87025029946E-03  0.18647568168E-01  0.18668156640E-01  0.00000000000E+00 0. -1.
<mgrwt>
<rscale>  1 0.53736468E+03</rscale>
<asrwt>0</asrwt>
<pdfrwt beam="1">  1        1 0.26257822E+00 0.53736468E+03</pdfrwt>
<pdfrwt beam="2">0</pdfrwt>
<totfact> 0.54120802E+00</totfact>
</mgrwt>
</event>
<event>
 6    1  0.2603926E-003  0.6478035E+03  0.7818608E-02  0.9810909E-01
          1   -1    0    0  502    0  0.00000000000E+00  0.00000000000E+00  0.10500291752E+03  0.10500291752E+03  0.00000000000E+00 0.  1.
         13   -1    0    0    0    0 -0.00000000000E+00 -0.00000000000E+00 -0.10000000000E+04  0.10000000000E+04  0.00000000000E+00 0.  1.
    9000005    2    1    2  501    0 -0.15744758105E-03 -0.34081344737E-02 -0.89508760730E+03  0.11049123284E+04  0.64780354179E+03 0.  0.
         13    1    3    3    0    0 -0.28739138172E+03  0.65695203310E+02 -0.21869334608E+03  0.36706463415E+03  0.00000000000E+00 0.  1.
          1    1    3    3  501    0  0.28739122427E+03 -0.65698611445E+02 -0.67639426123E+03  0.73784769428E+03  0.00000000000E+00 0.  1.
         21    1    1    2  502  501  0.15744758107E-03  0.34081344737E-02  0.90524822914E-01  0.90589092798E-01  0.00000000000E+00 0.  1.
<mgrwt>
<rscale>  1 0.64780354E+03</rscale>
<asrwt>0</asrwt>
<pdfrwt beam="1">  1        1 0.38182960E+00 0.64780354E+03</pdfrwt>
<pdfrwt beam="2">0</pdfrwt>
<totfact> 0.16113886E+00</totfact>
</mgrwt>
</event>
<event>
 6    1  0.2603926E-003  0.6500916E+03  0.7818608E-02  0.9806607E-01
          1   -1    0    0  502    0  0.00000000000E+00  0.00000000000E+00  0.10632413887E+03  0.10632413887E+03  0.00000000000E+00 0.  1.
         13   -1    0    0    0    0 -0.00000000000E+00 -0.00000000000E+00 -0.10000000000E+04  0.10000000000E+04  0.00000000000E+00 0.  1.
    9000005    2    1    2  501    0  0.58779290116E-01  0.37824953863E+00 -0.89428417766E+03  0.11056054062E+04  0.65009151447E+03 0.  0.
         13    1    3    3    0    0 -0.28286765518E+03  0.13786742557E+03 -0.30833508655E+03  0.44055880763E+03  0.00000000000E+00 0.  1.
          3    1    3    3  501    0  0.28292643447E+03 -0.13748917603E+03 -0.58594909111E+03  0.66504659853E+03  0.00000000000E+00 0.  1.
         21    1    1    2  502  501 -0.58779290116E-01 -0.37824953863E+00  0.60831652563E+00  0.71873271372E+00  0.00000000000E+00 0.  1.
<mgrwt>
<rscale>  1 0.65009163E+03</rscale>
<asrwt>0</asrwt>
<pdfrwt beam="1">  1        1 0.38663405E+00 0.65009163E+03</pdfrwt>
<pdfrwt beam="2">0</pdfrwt>
<totfact> 0.15338199E+00</totfact>
</mgrwt>
</event>
<event>
 6    1  0.2603926E-003  0.6585735E+03  0.7818608E-02  0.9790823E-01
          1   -1    0    0  502    0  0.00000000000E+00  0.00000000000E+00  0.10921260169E+03  0.10921260169E+03  0.00000000000E+00 0.  1.
         13   -1    0    0    0    0 -0.00000000000E+00 -0.00000000000E+00 -0.10000000000E+04  0.10000000000E+04  0.00000000000E+00 0.  1.
    9000005    2    1    2  501    0  0.63486461021E-01 -0.19977319473E-01 -0.89156868298E+03  0.11084284873E+04  0.65857345115E+03 0.  0.
         13    1    3    3    0    0 -0.21937034141E+03  0.16934399626E+03 -0.14650341591E+03  0.31347087047E+03  0.00000000000E+00 0.  1.
          1    1    3    3  501    0  0.21943382788E+03 -0.16936397358E+03 -0.74506526707E+03  0.79495761683E+03  0.00000000000E+00 0.  1.
         21    1    1    2  502  501 -0.63486461021E-01  0.19977319473E-01  0.78128467738E+00  0.78411438651E+00  0.00000000000E+00 0. -1.
<mgrwt>
<rscale>  1 0.65857345E+03</rscale>
<asrwt>0</asrwt>
<pdfrwt beam="1">  1        1 0.39713757E+00 0.65857345E+03</pdfrwt>
<pdfrwt beam="2">0</pdfrwt>
<totfact> 0.13755075E+00</totfact>
</mgrwt>
</event>
<event>
 6    1  0.2603926E-003  0.6474875E+03  0.7818608E-02  0.9811505E-01
          1   -1    0    0  502    0  0.00000000000E+00  0.00000000000E+00  0.10481040800E+03  0.10481040800E+03  0.00000000000E+00 0.  1.
         13   -1    0    0    0    0 -0.00000000000E+00 -0.00000000000E+00 -0.10000000000E+04  0.10000000000E+04  0.00000000000E+00 0.  1.
    9000005    2    1    2  501    0  0.30652875029E-03  0.23727663438E-03 -0.89518987040E+03  0.11048099308E+04  0.64748751263E+03 0.  0.
         13    1    3    3    0    0  0.14797212795E+03 -0.25337232924E+03 -0.68103261169E+03  0.74155155320E+03  0.00000000000E+00 0.  1.
          3    1    3    3  501    0 -0.14797182142E+03  0.25337256652E+03 -0.21415725871E+03  0.36325837755E+03  0.00000000000E+00 0.  1.
         21    1    1    2  502  501 -0.30652875028E-03 -0.23727663437E-03  0.27840528053E-03  0.47725210968E-03  0.00000000000E+00 0. -1.
<mgrwt>
<rscale>  1 0.64748751E+03</rscale>
<asrwt>0</asrwt>
<pdfrwt beam="1">  1        1 0.38112956E+00 0.64748751E+03</pdfrwt>
<pdfrwt beam="2">0</pdfrwt>
<totfact> 0.16229925E+00</totfact>
</mgrwt>
</event>
<event>
 6    1  0.2603926E-003  0.6517864E+03  0.7818608E-02  0.9803433E-01
          1   -1    0    0  502    0  0.00000000000E+00  0.00000000000E+00  0.10623221915E+03  0.10623221915E+03  0.00000000000E+00 0.  1.
         13   -1    0    0    0    0 -0.00000000000E+00 -0.00000000000E+00 -0.10000000000E+04  0.10000000000E+04  0.00000000000E+00 0.  1.
    9000005    2    1    2  501    0 -0.21712564829E-02 -0.44458072099E-02 -0.89379336462E+03  0.11062061613E+04  0.65178638582E+03 0.  0.
         13    1    3    3    0    0 -0.20701654686E+03  0.75513105935E+01 -0.19913389827E+02  0.20810914459E+03  0.00000000000E+00 0.  1.
          3    1    3    3  501    0  0.20701437561E+03 -0.75557564007E+01 -0.87387997480E+03  0.89809701676E+03  0.00000000000E+00 0.  1.
         21    1    1    2  502  501  0.21712564830E-02  0.44458072099E-02  0.25583772492E-01  0.26057800586E-01  0.00000000000E+00 0. -1.
<mgrwt>
<rscale>  1 0.65178639E+03</rscale>
<asrwt>0</asrwt>
<pdfrwt beam="1">  1        1 0.38629979E+00 0.65178639E+03</pdfrwt>
<pdfrwt beam="2">0</pdfrwt>
<totfact> 0.15385716E+00</totfact>
</mgrwt>
</event>
<event>
 6    1  0.2603926E-003  0.6703943E+03  0.7818608E-02  0.9769246E-01
          1   -1    0    0  502    0  0.00000000000E+00  0.00000000000E+00  0.11236515582E+03  0.11236515582E+03  0.00000000000E+00 0.  1.
         13   -1    0    0    0    0 -0.00000000000E+00 -0.00000000000E+00 -0.10000000000E+04  0.10000000000E+04  0.00000000000E+00 0.  1.
    9000005    2    1    2  501    0  0.50611578996E-03  0.11518136068E-03 -0.88764285956E+03  0.11123571236E+04  0.67039430516E+03 0.  0.
         13    1    3    3    0    0  0.10925106377E+03  0.29438042266E+03 -0.24917435934E+03  0.40085345144E+03  0.00000000000E+00 0.  1.
          1    1    3    3  501    0 -0.10925055766E+03 -0.29438030748E+03 -0.63846850022E+03  0.71150367220E+03  0.00000000000E+00 0.  1.
         21    1    1    2  502  501 -0.50611578997E-03 -0.11518136068E-03  0.80153867455E-02  0.80321755844E-02  0.00000000000E+00 0.  1.
<mgrwt>
<rscale>  1 0.67039431E+03</rscale>
<asrwt>0</asrwt>
<pdfrwt beam="1">  1        1 0.40860143E+00 0.67039431E+03</pdfrwt>
<pdfrwt beam="2">0</pdfrwt>
<totfact> 0.12198136E+00</totfact>
</mgrwt>
</event>
<event>
 6    1  0.2603926E-003  0.6440600E+03  0.7818608E-02  0.9817989E-01
          3   -1    0    0  502    0  0.00000000000E+00  0.00000000000E+00  0.10370446222E+03  0.10370446222E+03  0.00000000000E+00 0.  1.
         13   -1    0    0    0    0 -0.00000000000E+00 -0.00000000000E+00 -0.10000000000E+04  0.10000000000E+04  0.00000000000E+00 0.  1.
    9000005    2    1    2  501    0 -0.30931915143E-03 -0.17068978838E-03 -0.89629664649E+03  0.11037032986E+04  0.64406000713E+03 0.  0.
         13    1    3    3    0    0  0.20437476706E+03 -0.24732775407E+03 -0.40080522695E+03  0.51340519407E+03  0.00000000000E+00 0.  1.
          1    1    3    3  501    0 -0.20437507638E+03  0.24732758338E+03 -0.49549141954E+03  0.59029810451E+03  0.00000000000E+00 0.  1.
         21    1    1    2  502  501  0.30931915142E-03  0.17068978837E-03  0.11087177154E-02  0.11636444103E-02  0.00000000000E+00 0. -1.
<mgrwt>
<rscale>  1 0.64406001E+03</rscale>
<asrwt>0</asrwt>
<pdfrwt beam="1">  1        3 0.37710793E+00 0.64406001E+03</pdfrwt>
<pdfrwt beam="2">0</pdfrwt>
<totfact> 0.78259519E-02</totfact>
</mgrwt>
</event>
<event>
 6    1  0.2603926E-003  0.6541136E+03  0.7818608E-02  0.9799091E-01
          1   -1    0    0  502    0  0.00000000000E+00  0.00000000000E+00  0.10696619207E+03  0.10696619207E+03  0.00000000000E+00 0.  1.
         13   -1    0    0    0    0 -0.00000000000E+00 -0.00000000000E+00 -0.10000000000E+04  0.10000000000E+04  0.00000000000E+00 0.  1.
    9000005    2    1    2  501    0  0.14253976389E-04  0.95154862549E-05 -0.89303384091E+03  0.11069661549E+04  0.65411361940E+03 0.  0.
         13    1    3    3    0    0 -0.19233224307E+03 -0.25304317233E+03 -0.57698563125E+03  0.65873739644E+03  0.00000000000E+00 0.  1.
          3    1    3    3  501    0  0.19233225733E+03  0.25304318185E+03 -0.31604820966E+03  0.44822875847E+03  0.00000000000E+00 0.  1.
         21    1    1    2  502  501 -0.14253976384E-04 -0.95154862590E-05  0.32977994527E-04  0.37165420010E-04  0.00000000000E+00 0. -1.
<mgrwt>
<rscale>  1 0.65411362E+03</rscale>
<asrwt>0</asrwt>
<pdfrwt beam="1">  1        1 0.38896879E+00 0.65411362E+03</pdfrwt>
<pdfrwt beam="2">0</pdfrwt>
<totfact> 0.14966111E+00</totfact>
</mgrwt>
</event>
<event>
 6    1  0.2603926E-003  0.6454610E+03  0.7818608E-02  0.9815334E-01
          1   -1    0    0  502    0  0.00000000000E+00  0.00000000000E+00  0.10421109424E+03  0.10421109424E+03  0.00000000000E+00 0.  1.
         13   -1    0    0    0    0 -0.00000000000E+00 -0.00000000000E+00 -0.10000000000E+04  0.10000000000E+04  0.00000000000E+00 0.  1.
    9000005    2    1    2  501    0  0.15729548194E-02  0.11287019855E-02 -0.89584500729E+03  0.11041549593E+04  0.64546099580E+03 0.  0.
         13    1    3    3    0    0 -0.40154621603E+02 -0.26877236943E+03 -0.15013361913E+03  0.31046913502E+03  0.00000000000E+00 0.  1.
          1    1    3    3  501    0  0.40156194558E+02  0.26877349814E+03 -0.74571138815E+03  0.79368582429E+03  0.00000000000E+00 0.  1.
         21    1    1    2  502  501 -0.15729548194E-02 -0.11287019855E-02  0.56101531980E-01  0.56134927144E-01  0.00000000000E+00 0. -1.
<mgrwt>
<rscale>  1 0.64546100E+03</rscale>
<asrwt>0</asrwt>
<pdfrwt beam="1">  1        1 0.37895023E+00 0.64546100E+03</pdfrwt>
<pdfrwt beam="2">0</pdfrwt>
<totfact> 0.16599469E+00</totfact>
</mgrwt>
</event>
<event>
 6    1  0.2603926E-003  0.6518424E+03  0.7818608E-02  0.9803328E-01
          3   -1    0    0  502    0  0.00000000000E+00  0.00000000000E+00  0.10626266759E+03  0.10626266759E+03  0.00000000000E+00 0.  1.
         13   -1    0    0    0    0 -0.00000000000E+00 -0.00000000000E+00 -0.10000000000E+04  0.10000000000E+04  0.00000000000E+00 0.  1.
    9000005    2    1    2  501    0 -0.43059569079E-01  0.18305562545E-02 -0.89376136792E+03  0.11062133200E+04  0.65184240790E+03 0.  0.
         13    1    3    3    0    0  0.12982706554E+03 -0.90203997625E+02 -0.93053573937E+03  0.94386894768E+03  0.00000000000E+00 0.  1.
          1    1    3    3  501    0 -0.12987012511E+03  0.90205828181E+02  0.36774371453E+02  0.16234437234E+03  0.00000000000E+00 0.  1.
         21    1    1    2  502  501  0.43059569079E-01 -0.18305562546E-02  0.24035509795E-01  0.49347574982E-01  0.00000000000E+00 0. -1.
<mgrwt>
<rscale>  1 0.65184241E+03</rscale>
<asrwt>0</asrwt>
<pdfrwt beam="1">  1        3 0.38641052E+00 0.65184241E+03</pdfrwt>
<pdfrwt beam="2">0</pdfrwt>
<totfact> 0.69802812E-02</totfact>
</mgrwt>
</event>
<event>
 6    1  0.2603926E-003  0.6496022E+03  0.7818608E-02  0.9807526E-01
          1   -1    0    0  502    0  0.00000000000E+00  0.00000000000E+00  0.13036727997E+03  0.13036727997E+03  0.00000000000E+00 0.  1.
         13   -1    0    0    0    0 -0.00000000000E+00 -0.00000000000E+00 -0.10000000000E+04  0.10000000000E+04  0.00000000000E+00 0.  1.
    9000005    2    1    2  501    0  0.31239164090E+02  0.11010981765E+02 -0.88165949357E+03  0.10951285176E+04  0.64875718133E+03 0.  0.
         13    1    3    3    0    0 -0.29927270198E+03  0.83580426017E+02 -0.40077501271E+03  0.50711975763E+03  0.00000000000E+00 0.  1.
          1    1    3    3  501    0  0.33051186607E+03 -0.72569444253E+02 -0.48088448087E+03  0.58800875996E+03  0.00000000000E+00 0.  1.
         21    1    1    2  502  501 -0.31239164090E+02 -0.11010981765E+02  0.12026773540E+02  0.35238762382E+02  0.00000000000E+00 0.  1.
<mgrwt>
<rscale>  1 0.64960219E+03</rscale>
<asrwt>0</asrwt>
<pdfrwt beam="1">  1        1 0.47406384E+00 0.64960219E+03</pdfrwt>
<pdfrwt beam="2">0</pdfrwt>
<totfact> 0.61410663E-01</totfact>
</mgrwt>
</event>
<event>
 6    1  0.2603926E-003  0.6537045E+03  0.7818608E-02  0.9799853E-01
          1   -1    0    0  502    0  0.00000000000E+00  0.00000000000E+00  0.11038402282E+03  0.11038402282E+03  0.00000000000E+00 0.  1.
         13   -1    0    0    0    0 -0.00000000000E+00 -0.00000000000E+00 -0.10000000000E+04  0.10000000000E+04  0.00000000000E+00 0.  1.
    9000005    2    1    2  501    0  0.38057185874E+01  0.99373866971E+01 -0.87802054975E+03  0.10946458817E+04  0.65361784357E+03 0.  0.
         13    1    3    3    0    0  0.31350070189E+03  0.91200162453E+02 -0.36316658442E+03  0.48835451032E+03  0.00000000000E+00 0.  1.
          3    1    3    3  501    0 -0.30969498330E+03 -0.81262775756E+02 -0.51485396533E+03  0.60629137139E+03  0.00000000000E+00 0.  1.
         21    1    1    2  502  501 -0.38057185874E+01 -0.99373866971E+01 -0.11595427425E+02  0.15738141107E+02  0.00000000000E+00 0. -1.
<mgrwt>
<rscale>  1 0.65370446E+03</rscale>
<asrwt>0</asrwt>
<pdfrwt beam="1">  1        1 0.40139729E+00 0.65370446E+03</pdfrwt>
<pdfrwt beam="2">0</pdfrwt>
<totfact> 0.13178869E+00</totfact>
</mgrwt>
</event>
<event>
 6    1  0.2603926E-003  0.6371196E+03  0.7818608E-02  0.9831253E-01
          1   -1    0    0  502    0  0.00000000000E+00  0.00000000000E+00  0.10619351265E+03  0.10619351265E+03  0.00000000000E+00 0.  1.
         13   -1    0    0    0    0 -0.00000000000E+00 -0.00000000000E+00 -0.10000000000E+04  0.10000000000E+04  0.00000000000E+00 0.  1.
    9000005    2    1    2  501    0 -0.63608337777E-01  0.90527262505E-01 -0.89851892873E+03  0.11014797726E+04  0.63711962142E+03 0.  0.
         13    1    3    3    0    0  0.31256881516E+03  0.36978794045E+02 -0.36457800929E+03  0.48164698720E+03  0.00000000000E+00 0.  1.
          3    1    3    3  501    0 -0.31263242350E+03 -0.36888266782E+02 -0.53394091944E+03  0.61983278543E+03  0.00000000000E+00 0.  1.
         21    1    1    2  502  501  0.63608337777E-01 -0.90527262505E-01  0.47124413772E+01  0.47137400161E+01  0.00000000000E+00 0. -1.
<mgrwt>
<rscale>  1 0.63711963E+03</rscale>
<asrwt>0</asrwt>
<pdfrwt beam="1">  1        1 0.38615904E+00 0.63711963E+03</pdfrwt>
<pdfrwt beam="2">0</pdfrwt>
<totfact> 0.15450025E+00</totfact>
</mgrwt>
</event>
