<event>
 6    1  0.5744123E-003  0.5643127E+03  0.7818608E-02  0.9982343E-01
          1   -1    0    0  502    0  0.00000000000E+00  0.00000000000E+00  0.79630790283E+02  0.79630790283E+02  0.00000000000E+00 0.  1.
         13   -1    0    0    0    0 -0.00000000000E+00 -0.00000000000E+00 -0.10000000000E+04  0.10000000000E+04  0.00000000000E+00 0.  1.
    9000005    2    1    2  501    0 -0.62940040048E-02  0.64771971027E-02 -0.92038660177E+03  0.10796111930E+04  0.56431270704E+03 0.  0.
         13    1    3    3    0    0  0.99430514647E+02 -0.20020662103E+03 -0.13080928229E+03  0.25899842988E+03  0.00000000000E+00 0.  1.
          3    1    3    3  501    0 -0.99436808651E+02  0.20021309823E+03 -0.78957731948E+03  0.82061276316E+03  0.00000000000E+00 0.  1.
         21    1    1    2  502  501  0.62940040048E-02 -0.64771971027E-02  0.17392052688E-01  0.19597246373E-01  0.00000000000E+00 0.  1.
<mgrwt>
<rscale>  1 0.56431271E+03</rscale>
<asrwt>0</asrwt>
<pdfrwt beam="1">  1        1 0.28956712E+00 0.56431271E+03</pdfrwt>
<pdfrwt beam="2">0</pdfrwt>
<totfact> 0.41185625E+00</totfact>
</mgrwt>
</event>
<event>
 6    1  0.5744123E-003  0.6282413E+03  0.7818608E-02  0.9848487E-01
          1   -1    0    0  502    0  0.00000000000E+00  0.00000000000E+00  0.98707943704E+02  0.98707943704E+02  0.00000000000E+00 0.  1.
         13   -1    0    0    0    0 -0.00000000000E+00 -0.00000000000E+00 -0.10000000000E+04  0.10000000000E+04  0.00000000000E+00 0.  1.
    9000005    2    1    2  501    0  0.21714877764E-02 -0.40380879006E-02 -0.90132805994E+03  0.10986716493E+04  0.62824129226E+03 0.  0.
         13    1    3    3    0    0  0.24119610469E+03 -0.51067346278E+02 -0.11025872649E+03  0.27007484433E+03  0.00000000000E+00 0.  1.
          3    1    3    3  501    0 -0.24119393320E+03  0.51063308191E+02 -0.79106933346E+03  0.82859680496E+03  0.00000000000E+00 0.  1.
         21    1    1    2  502  501 -0.21714877764E-02  0.40380879006E-02  0.36003648393E-01  0.36294410185E-01  0.00000000000E+00 0. -1.
<mgrwt>
<rscale>  1 0.62824129E+03</rscale>
<asrwt>0</asrwt>
<pdfrwt beam="1">  1        1 0.35893873E+00 0.62824129E+03</pdfrwt>
<pdfrwt beam="2">0</pdfrwt>
<totfact> 0.20384869E+00</totfact>
</mgrwt>
</event>
<event>
 6    1  0.5744123E-003  0.6353974E+03  0.7818608E-02  0.9834572E-01
          1   -1    0    0  502    0  0.00000000000E+00  0.00000000000E+00  0.10174146513E+03  0.10174146513E+03  0.00000000000E+00 0.  1.
         13   -1    0    0    0    0 -0.00000000000E+00 -0.00000000000E+00 -0.10000000000E+04  0.10000000000E+04  0.00000000000E+00 0.  1.
    9000005    2    1    2  501    0  0.87740575139E-01  0.53584589877E-01 -0.89906392982E+03  0.11009295349E+04  0.63539741916E+03 0.  0.
         13    1    3    3    0    0  0.19387827722E+03  0.23970432142E+03 -0.58286011825E+03  0.65937308524E+03  0.00000000000E+00 0.  1.
          1    1    3    3  501    0 -0.19379053665E+03 -0.23965073683E+03 -0.31620381157E+03  0.44155644963E+03  0.00000000000E+00 0.  1.
         21    1    1    2  502  501 -0.87740575139E-01 -0.53584589877E-01  0.80539494884E+00  0.81193025588E+00  0.00000000000E+00 0.  1.
<mgrwt>
<rscale>  1 0.63539743E+03</rscale>
<asrwt>0</asrwt>
<pdfrwt beam="1">  1        1 0.36996974E+00 0.63539743E+03</pdfrwt>
<pdfrwt beam="2">0</pdfrwt>
<totfact> 0.18214361E+00</totfact>
</mgrwt>
</event>
<event>
 6    1  0.5744123E-003  0.6499548E+03  0.7818608E-02  0.9806864E-01
          1   -1    0    0  502    0  0.00000000000E+00  0.00000000000E+00  0.10561116806E+03  0.10561116806E+03  0.00000000000E+00 0.  1.
         13   -1    0    0    0    0 -0.00000000000E+00 -0.00000000000E+00 -0.10000000000E+04  0.10000000000E+04  0.00000000000E+00 0.  1.
    9000005    2    1    2  501    0 -0.12226139262E-03  0.15431039274E-03 -0.89438968341E+03  0.11056102941E+04  0.64995478049E+03 0.  0.
         13    1    3    3    0    0 -0.31486230987E+03 -0.48339258071E+02 -0.33780519169E+03  0.46431380076E+03  0.00000000000E+00 0.  1.
          3    1    3    3  501    0  0.31486218761E+03  0.48339412381E+02 -0.55658449172E+03  0.64129649336E+03  0.00000000000E+00 0.  1.
         21    1    1    2  502  501  0.12226139262E-03 -0.15431039275E-03  0.85147026736E-03  0.87393430052E-03  0.00000000000E+00 0.  1.
<mgrwt>
<rscale>  1 0.64995478E+03</rscale>
<asrwt>0</asrwt>
<pdfrwt beam="1">  1        1 0.38404142E+00 0.64995478E+03</pdfrwt>
<pdfrwt beam="2">0</pdfrwt>
<totfact> 0.15749068E+00</totfact>
</mgrwt>
</event>
<event>
 6    1  0.5744123E-003  0.6562703E+03  0.7818608E-02  0.9795084E-01
          1   -1    0    0  502    0  0.00000000000E+00  0.00000000000E+00  0.10900581345E+03  0.10900581345E+03  0.00000000000E+00 0.  1.
         13   -1    0    0    0    0 -0.00000000000E+00 -0.00000000000E+00 -0.10000000000E+04  0.10000000000E+04  0.00000000000E+00 0.  1.
    9000005    2    1    2  501    0  0.78488722810E-02 -0.26222153785E-01 -0.89232716160E+03  0.11076725574E+04  0.65627031804E+03 0.  0.
         13    1    3    3    0    0 -0.13899958994E+03 -0.29723041740E+03 -0.45216355520E+03  0.55867583417E+03  0.00000000000E+00 0.  1.
          3    1    3    3  501    0  0.13900743881E+03  0.29720419525E+03 -0.44016360640E+03  0.54899672323E+03  0.00000000000E+00 0.  1.
         21    1    1    2  502  501 -0.78488722810E-02  0.26222153785E-01  0.13329750538E+01  0.13332560520E+01  0.00000000000E+00 0.  1.
<mgrwt>
<rscale>  1 0.65627032E+03</rscale>
<asrwt>0</asrwt>
<pdfrwt beam="1">  1        1 0.39638561E+00 0.65627032E+03</pdfrwt>
<pdfrwt beam="2">0</pdfrwt>
<totfact> 0.13867462E+00</totfact>
</mgrwt>
</event>
<event>
 6    1  0.5744123E-003  0.6439340E+03  0.7818608E-02  0.9818229E-01
          1   -1    0    0  502    0  0.00000000000E+00  0.00000000000E+00  0.10407636037E+03  0.10407636037E+03  0.00000000000E+00 0.  1.
         13   -1    0    0    0    0 -0.00000000000E+00 -0.00000000000E+00 -0.10000000000E+04  0.10000000000E+04  0.00000000000E+00 0.  1.
    9000005    2    1    2  501    0  0.11172401464E-02  0.55224924462E-02 -0.89633722297E+03  0.11036627387E+04  0.64393402099E+03 0.  0.
         13    1    3    3    0    0  0.16670543220E+03  0.20526753773E+03 -0.76298878540E+03  0.80751306480E+03  0.00000000000E+00 0.  1.
          3    1    3    3  501    0 -0.16670431496E+03 -0.20526201524E+03 -0.13334843757E+03  0.29614967386E+03  0.00000000000E+00 0.  1.
         21    1    1    2  502  501 -0.11172401464E-02 -0.55224924462E-02  0.41358334113E+00  0.41362171874E+00  0.00000000000E+00 0. -1.
<mgrwt>
<rscale>  1 0.64393402E+03</rscale>
<asrwt>0</asrwt>
<pdfrwt beam="1">  1        1 0.37846029E+00 0.64393402E+03</pdfrwt>
<pdfrwt beam="2">0</pdfrwt>
<totfact> 0.16686927E+00</totfact>
</mgrwt>
</event>
<event>
 6    1  0.5744123E-003  0.6504885E+03  0.7818608E-02  0.9805863E-01
          1   -1    0    0  502    0  0.00000000000E+00  0.00000000000E+00  0.10580009018E+03  0.10580009018E+03  0.00000000000E+00 0.  1.
         13   -1    0    0    0    0 -0.00000000000E+00 -0.00000000000E+00 -0.10000000000E+04  0.10000000000E+04  0.00000000000E+00 0.  1.
    9000005    2    1    2  501    0  0.26265036795E-02 -0.78023557862E-02 -0.89421502824E+03  0.11057828756E+04  0.65048847120E+03 0.  0.
         13    1    3    3    0    0 -0.24273280997E+02  0.27097584730E+03 -0.14413161004E+03  0.30788150806E+03  0.00000000000E+00 0.  1.
          3    1    3    3  501    0  0.24275907501E+02 -0.27098364966E+03 -0.75008341820E+03  0.79790136754E+03  0.00000000000E+00 0.  1.
         21    1    1    2  502  501 -0.26265036795E-02  0.78023557862E-02  0.15118417644E-01  0.17214581884E-01  0.00000000000E+00 0. -1.
<mgrwt>
<rscale>  1 0.65048847E+03</rscale>
<asrwt>0</asrwt>
<pdfrwt beam="1">  1        1 0.38472841E+00 0.65048847E+03</pdfrwt>
<pdfrwt beam="2">0</pdfrwt>
<totfact> 0.15637751E+00</totfact>
</mgrwt>
</event>
<event>
 6    1  0.5744123E-003  0.6869326E+03  0.7818608E-02  0.9739844E-01
          1   -1    0    0  502    0  0.00000000000E+00  0.00000000000E+00  0.11796927094E+03  0.11796927094E+03  0.00000000000E+00 0.  1.
         13   -1    0    0    0    0 -0.00000000000E+00 -0.00000000000E+00 -0.10000000000E+04  0.10000000000E+04  0.00000000000E+00 0.  1.
    9000005    2    1    2  501    0 -0.12724720222E-04  0.31757234069E-03 -0.88203073999E+03  0.11179689529E+04  0.68693256831E+03 0.  0.
         13    1    3    3    0    0  0.65496999187E+02 -0.27969489260E+03 -0.74743949845E+03  0.80074021611E+03  0.00000000000E+00 0.  1.
          3    1    3    3  501    0 -0.65497011912E+02  0.27969521017E+03 -0.13459124154E+03  0.31722873682E+03  0.00000000000E+00 0.  1.
         21    1    1    2  502  501  0.12724720213E-04 -0.31757234067E-03  0.10932994737E-04  0.31801515755E-03  0.00000000000E+00 0. -1.
<mgrwt>
<rscale>  1 0.68693257E+03</rscale>
<asrwt>0</asrwt>
<pdfrwt beam="1">  1        1 0.42898007E+00 0.68693257E+03</pdfrwt>
<pdfrwt beam="2">0</pdfrwt>
<totfact> 0.98399512E-01</totfact>
</mgrwt>
</event>
<event>
 6    1  0.5744123E-003  0.6473047E+03  0.7818608E-02  0.9811850E-01
          1   -1    0    0  502    0  0.00000000000E+00  0.00000000000E+00  0.10475090758E+03  0.10475090758E+03  0.00000000000E+00 0.  1.
         13   -1    0    0    0    0 -0.00000000000E+00 -0.00000000000E+00 -0.10000000000E+04  0.10000000000E+04  0.00000000000E+00 0.  1.
    9000005    2    1    2  501    0  0.37908760447E-04  0.20306643194E-04 -0.89524913228E+03  0.11047508489E+04  0.64730474229E+03 0.  0.
         13    1    3    3    0    0  0.16502470440E+03  0.14491695215E+03 -0.85336129322E+03  0.88116943481E+03  0.00000000000E+00 0.  1.
          1    1    3    3  501    0 -0.16502466649E+03 -0.14491693185E+03 -0.41887839065E+02  0.22358141414E+03  0.00000000000E+00 0.  1.
         21    1    1    2  502  501 -0.37908760438E-04 -0.20306643211E-04  0.39864208511E-04  0.58639483257E-04  0.00000000000E+00 0. -1.
<mgrwt>
<rscale>  1 0.64730474E+03</rscale>
<asrwt>0</asrwt>
<pdfrwt beam="1">  1        1 0.38091319E+00 0.64730474E+03</pdfrwt>
<pdfrwt beam="2">0</pdfrwt>
<totfact> 0.16266205E+00</totfact>
</mgrwt>
</event>
<event>
 6    1  0.5744123E-003  0.6528448E+03  0.7818608E-02  0.9801456E-01
          1   -1    0    0  502    0  0.00000000000E+00  0.00000000000E+00  0.10655829639E+03  0.10655829639E+03  0.00000000000E+00 0.  1.
         13   -1    0    0    0    0 -0.00000000000E+00 -0.00000000000E+00 -0.10000000000E+04  0.10000000000E+04  0.00000000000E+00 0.  1.
    9000005    2    1    2  501    0 -0.95860738723E-03 -0.36252013342E-03 -0.89344838542E+03  0.11065515364E+04  0.65284476361E+03 0.  0.
         13    1    3    3    0    0  0.11281296846E+03 -0.29696531323E+03 -0.31947268835E+03  0.45053075558E+03  0.00000000000E+00 0.  1.
          1    1    3    3  501    0 -0.11281392707E+03  0.29696495071E+03 -0.57397569707E+03  0.65602078086E+03  0.00000000000E+00 0.  1.
         21    1    1    2  502  501  0.95860738723E-03  0.36252013342E-03  0.66818084379E-02  0.67599491841E-02  0.00000000000E+00 0.  1.
<mgrwt>
<rscale>  1 0.65284476E+03</rscale>
<asrwt>0</asrwt>
<pdfrwt beam="1">  1        1 0.38748553E+00 0.65284476E+03</pdfrwt>
<pdfrwt beam="2">0</pdfrwt>
<totfact> 0.15197872E+00</totfact>
</mgrwt>
</event>
<event>
 6    1  0.5744123E-003  0.6548837E+03  0.7818608E-02  0.9797658E-01
          1   -1    0    0  502    0  0.00000000000E+00  0.00000000000E+00  0.10721908925E+03  0.10721908925E+03  0.00000000000E+00 0.  1.
         13   -1    0    0    0    0 -0.00000000000E+00 -0.00000000000E+00 -0.10000000000E+04  0.10000000000E+04  0.00000000000E+00 0.  1.
    9000005    2    1    2  501    0 -0.27734151558E-04  0.30892798264E-04 -0.89278184076E+03  0.11072181583E+04  0.65488368045E+03 0.  0.
         13    1    3    3    0    0 -0.21861395654E+03 -0.77904157558E+02 -0.83693037474E+03  0.86851227506E+03  0.00000000000E+00 0.  1.
          3    1    3    3  501    0  0.21861392881E+03  0.77904188451E+02 -0.55851466017E+02  0.23870588326E+03  0.00000000000E+00 0.  1.
         21    1    1    2  502  501  0.27734151557E-04 -0.30892798259E-04  0.93000766691E-03  0.93093383689E-03  0.00000000000E+00 0. -1.
<mgrwt>
<rscale>  1 0.65488368E+03</rscale>
<asrwt>0</asrwt>
<pdfrwt beam="1">  1        1 0.38988842E+00 0.65488368E+03</pdfrwt>
<pdfrwt beam="2">0</pdfrwt>
<totfact> 0.14824152E+00</totfact>
</mgrwt>
</event>
<event>
 6    1  0.5744123E-003  0.6498406E+03  0.7818608E-02  0.9807078E-01
          1   -1    0    0  502    0  0.00000000000E+00  0.00000000000E+00  0.10566896658E+03  0.10566896658E+03  0.00000000000E+00 0.  1.
         13   -1    0    0    0    0 -0.00000000000E+00 -0.00000000000E+00 -0.10000000000E+04  0.10000000000E+04  0.00000000000E+00 0.  1.
    9000005    2    1    2  501    0 -0.26034177700E+00 -0.12690720584E+00 -0.89401770304E+03  0.11052422826E+04  0.64984056971E+03 0.  0.
         13    1    3    3    0    0 -0.74561940288E+02 -0.18425315174E+03 -0.98036540340E+01  0.19900959399E+03  0.00000000000E+00 0.  1.
          1    1    3    3  501    0  0.74301598511E+02  0.18412624454E+03 -0.88421404900E+03  0.90623268862E+03  0.00000000000E+00 0.  1.
         21    1    1    2  502  501  0.26034177700E+00  0.12690720584E+00 -0.31333038508E+00  0.42668396966E+00  0.00000000000E+00 0.  1.
<mgrwt>
<rscale>  1 0.64984063E+03</rscale>
<asrwt>0</asrwt>
<pdfrwt beam="1">  1        1 0.38425160E+00 0.64984063E+03</pdfrwt>
<pdfrwt beam="2">0</pdfrwt>
<totfact> 0.15715736E+00</totfact>
</mgrwt>
</event>
<event>
 6    1  0.5744123E-003  0.6504247E+03  0.7818608E-02  0.9805983E-01
          1   -1    0    0  502    0  0.00000000000E+00  0.00000000000E+00  0.10576312851E+03  0.10576312851E+03  0.00000000000E+00 0.  1.
         13   -1    0    0    0    0 -0.00000000000E+00 -0.00000000000E+00 -0.10000000000E+04  0.10000000000E+04  0.00000000000E+00 0.  1.
    9000005    2    1    2  501    0  0.52913927675E-05  0.16312687194E-04 -0.89423693215E+03  0.11057630655E+04  0.65042468137E+03 0.  0.
         13    1    3    3    0    0  0.27121527750E+03 -0.15267631572E+03 -0.60745958321E+03  0.68255031270E+03  0.00000000000E+00 0.  1.
          3    1    3    3  501    0 -0.27121527221E+03  0.15267633203E+03 -0.28677734894E+03  0.42321275277E+03  0.00000000000E+00 0.  1.
         21    1    1    2  502  501 -0.52913927518E-05 -0.16312687195E-04  0.60665181495E-04  0.63042579632E-04  0.00000000000E+00 0.  1.
<mgrwt>
<rscale>  1 0.65042468E+03</rscale>
<asrwt>0</asrwt>
<pdfrwt beam="1">  1        1 0.38459401E+00 0.65042468E+03</pdfrwt>
<pdfrwt beam="2">0</pdfrwt>
<totfact> 0.15659353E+00</totfact>
</mgrwt>
</event>
<event>
 6    1  0.5744123E-003  0.6270573E+03  0.7818608E-02  0.9850808E-01
          1   -1    0    0  502    0  0.00000000000E+00  0.00000000000E+00  0.98301963567E+02  0.98301963567E+02  0.00000000000E+00 0.  1.
         13   -1    0    0    0    0 -0.00000000000E+00 -0.00000000000E+00 -0.10000000000E+04  0.10000000000E+04  0.00000000000E+00 0.  1.
    9000005    2    1    2  501    0 -0.91748352668E-03 -0.84264275863E-03 -0.90169954231E+03  0.10983000092E+04  0.62705729056E+03 0.  0.
         13    1    3    3    0    0 -0.29231462622E+03  0.43799307103E+02 -0.26769996416E+03  0.39878501830E+03  0.00000000000E+00 0.  1.
          1    1    3    3  501    0  0.29231370874E+03 -0.43800149746E+02 -0.63399957815E+03  0.69951499092E+03  0.00000000000E+00 0.  1.
         21    1    1    2  502  501  0.91748352666E-03  0.84264275863E-03  0.15058767829E-02  0.19543509730E-02  0.00000000000E+00 0.  1.
<mgrwt>
<rscale>  1 0.62705729E+03</rscale>
<asrwt>0</asrwt>
<pdfrwt beam="1">  1        1 0.35746244E+00 0.62705729E+03</pdfrwt>
<pdfrwt beam="2">0</pdfrwt>
<totfact> 0.20694384E+00</totfact>
</mgrwt>
</event>
<event>
 6    1  0.5744123E-003  0.6663569E+03  0.7818608E-02  0.9776562E-01
          1   -1    0    0  502    0  0.00000000000E+00  0.00000000000E+00  0.11100836126E+03  0.11100836126E+03  0.00000000000E+00 0.  1.
         13   -1    0    0    0    0 -0.00000000000E+00 -0.00000000000E+00 -0.10000000000E+04  0.10000000000E+04  0.00000000000E+00 0.  1.
    9000005    2    1    2  501    0  0.74318575119E-03 -0.38250027637E-03 -0.88899168363E+03  0.11110075242E+04  0.66635689034E+03 0.  0.
         13    1    3    3    0    0 -0.19027586438E+03  0.13184450781E+03 -0.84401770380E+03  0.87518784448E+03  0.00000000000E+00 0.  1.
          3    1    3    3  501    0  0.19027660757E+03 -0.13184489031E+03 -0.44973979828E+02  0.23581967973E+03  0.00000000000E+00 0.  1.
         21    1    1    2  502  501 -0.74318575118E-03  0.38250027637E-03  0.44886299153E-04  0.83704617676E-03  0.00000000000E+00 0.  1.
<mgrwt>
<rscale>  1 0.66635689E+03</rscale>
<asrwt>0</asrwt>
<pdfrwt beam="1">  1        1 0.40366762E+00 0.66635689E+03</pdfrwt>
<pdfrwt beam="2">0</pdfrwt>
<totfact> 0.12844111E+00</totfact>
</mgrwt>
</event>
<event>
 6    1  0.5744123E-003  0.6414021E+03  0.7818608E-02  0.9823048E-01
          1   -1    0    0  502    0  0.00000000000E+00  0.00000000000E+00  0.10285063675E+03  0.10285063675E+03  0.00000000000E+00 0.  1.
         13   -1    0    0    0    0 -0.00000000000E+00 -0.00000000000E+00 -0.10000000000E+04  0.10000000000E+04  0.00000000000E+00 0.  1.
    9000005    2    1    2  501    0  0.29030093086E-03 -0.19010627602E-03 -0.89715080514E+03  0.11028491537E+04  0.64140212708E+03 0.  0.
         13    1    3    3    0    0 -0.16255785833E+03  0.16198490409E+03 -0.63387568614E+02  0.23808013423E+03  0.00000000000E+00 0.  1.
          3    1    3    3  501    0  0.16255814863E+03 -0.16198509420E+03 -0.83376323653E+03  0.86476901946E+03  0.00000000000E+00 0.  1.
         21    1    1    2  502  501 -0.29030093084E-03  0.19010627601E-03  0.14418924743E-02  0.14830606644E-02  0.00000000000E+00 0.  1.
<mgrwt>
<rscale>  1 0.64140213E+03</rscale>
<asrwt>0</asrwt>
<pdfrwt beam="1">  1        1 0.37400310E+00 0.64140213E+03</pdfrwt>
<pdfrwt beam="2">0</pdfrwt>
<totfact> 0.17466603E+00</totfact>
</mgrwt>
</event>
<event>
 6    1  0.5744123E-003  0.5874305E+03  0.7818608E-02  0.9931832E-01
          1   -1    0    0  502    0  0.00000000000E+00  0.00000000000E+00  0.86869419300E+02  0.86869419300E+02  0.00000000000E+00 0.  1.
         13   -1    0    0    0    0 -0.00000000000E+00 -0.00000000000E+00 -0.10000000000E+04  0.10000000000E+04  0.00000000000E+00 0.  1.
    9000005    2    1    2  501    0  0.96094606735E-01 -0.88740950999E-01 -0.91372359785E+03  0.10862621480E+04  0.58743052674E+03 0.  0.
         13    1    3    3    0    0  0.65065388185E+02  0.19763314376E+03 -0.73534784822E+02  0.22068015051E+03  0.00000000000E+00 0.  1.
          3    1    3    3  501    0 -0.64969293578E+02 -0.19772188471E+03 -0.84018881302E+03  0.86558199746E+03  0.00000000000E+00 0.  1.
         21    1    1    2  502  501 -0.96094606735E-01  0.88740950999E-01  0.59301714552E+00  0.60727132709E+00  0.00000000000E+00 0. -1.
<mgrwt>
<rscale>  1 0.58743054E+03</rscale>
<asrwt>0</asrwt>
<pdfrwt beam="1">  1        1 0.31588946E+00 0.58743054E+03</pdfrwt>
<pdfrwt beam="2">0</pdfrwt>
<totfact> 0.31578216E+00</totfact>
</mgrwt>
</event>
<event>
 6    1  0.5744123E-003  0.6573401E+03  0.7818608E-02  0.9793103E-01
          1   -1    0    0  502    0  0.00000000000E+00  0.00000000000E+00  0.11300635108E+03  0.11300635108E+03  0.00000000000E+00 0.  1.
         13   -1    0    0    0    0 -0.00000000000E+00 -0.00000000000E+00 -0.10000000000E+04  0.10000000000E+04  0.00000000000E+00 0.  1.
    9000005    2    1    2  501    0 -0.28960154529E+00 -0.47241176436E-01 -0.89197120667E+03  0.11080201519E+04  0.65734004704E+03 0.  0.
         13    1    3    3    0    0  0.21483490630E+03 -0.24287405754E+03 -0.35618815021E+03  0.48167607699E+03  0.00000000000E+00 0.  1.
          1    1    3    3  501    0 -0.21512450785E+03  0.24282681636E+03 -0.53578305647E+03  0.62634407494E+03  0.00000000000E+00 0.  1.
         21    1    1    2  502  501  0.28960154529E+00  0.47241176436E-01  0.49775577490E+01  0.49861991465E+01  0.00000000000E+00 0.  1.
<mgrwt>
<rscale>  1 0.65734011E+03</rscale>
<asrwt>0</asrwt>
<pdfrwt beam="1">  1        1 0.41093305E+00 0.65734011E+03</pdfrwt>
<pdfrwt beam="2">0</pdfrwt>
<totfact> 0.11937612E+00</totfact>
</mgrwt>
</event>
<event>
 6    1  0.5744123E-003  0.6527223E+03  0.7818608E-02  0.9801684E-01
          1   -1    0    0  502    0  0.00000000000E+00  0.00000000000E+00  0.10652692138E+03  0.10652692138E+03  0.00000000000E+00 0.  1.
         13   -1    0    0    0    0 -0.00000000000E+00 -0.00000000000E+00 -0.10000000000E+04  0.10000000000E+04  0.00000000000E+00 0.  1.
    9000005    2    1    2  501    0  0.10603215358E-01 -0.15887971877E-01 -0.89348149802E+03  0.11065060469E+04  0.65272233321E+03 0.  0.
         13    1    3    3    0    0  0.89335605389E+02 -0.15323669223E+03  0.17669427246E+02  0.17825415253E+03  0.00000000000E+00 0.  1.
          3    1    3    3  501    0 -0.89325002174E+02  0.15322080426E+03 -0.91115092526E+03  0.92825189441E+03  0.00000000000E+00 0.  1.
         21    1    1    2  502  501 -0.10603215358E-01  0.15887971877E-01  0.84193997568E-02  0.20874436964E-01  0.00000000000E+00 0. -1.
<mgrwt>
<rscale>  1 0.65272233E+03</rscale>
<asrwt>0</asrwt>
<pdfrwt beam="1">  1        1 0.38737144E+00 0.65272233E+03</pdfrwt>
<pdfrwt beam="2">0</pdfrwt>
<totfact> 0.15215909E+00</totfact>
</mgrwt>
</event>
<event>
 6    1  0.5744123E-003  0.6354091E+03  0.7818608E-02  0.9834550E-01
          1   -1    0    0  502    0  0.00000000000E+00  0.00000000000E+00  0.10133954991E+03  0.10133954991E+03  0.00000000000E+00 0.  1.
         13   -1    0    0    0    0 -0.00000000000E+00 -0.00000000000E+00 -0.10000000000E+04  0.10000000000E+04  0.00000000000E+00 0.  1.
    9000005    2    1    2  501    0  0.95986914812E-01 -0.59111918193E-03 -0.89905751594E+03  0.11009310464E+04  0.63540911445E+03 0.  0.
         13    1    3    3    0    0 -0.21151155041E+03  0.64661319388E+02 -0.84457561517E+03  0.87305566370E+03  0.00000000000E+00 0.  1.
          3    1    3    3  501    0  0.21160753733E+03 -0.64661910507E+02 -0.54481900766E+02  0.22787538269E+03  0.00000000000E+00 0.  1.
         21    1    1    2  502  501 -0.95986914812E-01  0.59111918194E-03  0.39706585258E+00  0.40850352327E+00  0.00000000000E+00 0.  1.
<mgrwt>
<rscale>  1 0.63540912E+03</rscale>
<asrwt>0</asrwt>
<pdfrwt beam="1">  1        1 0.36850823E+00 0.63540912E+03</pdfrwt>
<pdfrwt beam="2">0</pdfrwt>
<totfact> 0.18485413E+00</totfact>
</mgrwt>
</event>
<event>
 6    1  0.5744123E-003  0.6420421E+03  0.7818608E-02  0.9821827E-01
          1   -1    0    0  502    0  0.00000000000E+00  0.00000000000E+00  0.10323623149E+03  0.10323623149E+03  0.00000000000E+00 0.  1.
         13   -1    0    0    0    0 -0.00000000000E+00 -0.00000000000E+00 -0.10000000000E+04  0.10000000000E+04  0.00000000000E+00 0.  1.
    9000005    2    1    2  501    0  0.13154280800E-01 -0.44408195340E-02 -0.89694518974E+03  0.11030542798E+04  0.64204210968E+03 0.  0.
         13    1    3    3    0    0 -0.15535483202E+03  0.20029794921E+03 -0.11006374649E+03  0.27634836815E+03  0.00000000000E+00 0.  1.
          1    1    3    3  501    0  0.15536798630E+03 -0.20030239003E+03 -0.78688144325E+03  0.82670591165E+03  0.00000000000E+00 0.  1.
         21    1    1    2  502  501 -0.13154280800E-01  0.44408195340E-02  0.18142122517E+00  0.18195168844E+00  0.00000000000E+00 0. -1.
<mgrwt>
<rscale>  1 0.64204211E+03</rscale>
<asrwt>0</asrwt>
<pdfrwt beam="1">  1        1 0.37540527E+00 0.64204211E+03</pdfrwt>
<pdfrwt beam="2">0</pdfrwt>
<totfact> 0.17218146E+00</totfact>
</mgrwt>
</event>
<event>
 6    1  0.5744123E-003  0.6294308E+03  0.7818608E-02  0.9846160E-01
          1   -1    0    0  502    0  0.00000000000E+00  0.00000000000E+00  0.99907705499E+02  0.99907705499E+02  0.00000000000E+00 0.  1.
         13   -1    0    0    0    0 -0.00000000000E+00 -0.00000000000E+00 -0.10000000000E+04  0.10000000000E+04  0.00000000000E+00 0.  1.
    9000005    2    1    2  501    0  0.15123964795E+01 -0.22555416369E+01 -0.89673166116E+03  0.10955869801E+04  0.62942496305E+03 0.  0.
         13    1    3    3    0    0  0.17521438096E+03  0.25447552279E+03 -0.54727595133E+03  0.62846546277E+03  0.00000000000E+00 0.  1.
          3    1    3    3  501    0 -0.17370198448E+03 -0.25673106442E+03 -0.34945570983E+03  0.46712151737E+03  0.00000000000E+00 0.  1.
         21    1    1    2  502  501 -0.15123964795E+01  0.22555416369E+01 -0.33606333361E+01  0.43207253565E+01  0.00000000000E+00 0. -1.
<mgrwt>
<rscale>  1 0.62943082E+03</rscale>
<asrwt>0</asrwt>
<pdfrwt beam="1">  1        1 0.36330151E+00 0.62943082E+03</pdfrwt>
<pdfrwt beam="2">0</pdfrwt>
<totfact> 0.19504125E+00</totfact>
</mgrwt>
</event>
<event>
 6    1  0.5744123E-003  0.5027509E+03  0.7818608E-02  0.1013063E+00
          1   -1    0    0  502    0  0.00000000000E+00  0.00000000000E+00  0.63191625878E+02  0.63191625878E+02  0.00000000000E+00 0.  1.
         13   -1    0    0    0    0 -0.00000000000E+00 -0.00000000000E+00 -0.10000000000E+04  0.10000000000E+04  0.00000000000E+00 0.  1.
    9000005    2    1    2  501    0  0.64561915910E-03 -0.31976570315E-03 -0.93681031575E+03  0.10631895549E+04  0.50275089451E+03 0.  0.
         13    1    3    3    0    0  0.49107746140E+01 -0.10129991419E+03 -0.95481422097E+03  0.96018539089E+03  0.00000000000E+00 0.  1.
          1    1    3    3  501    0 -0.49101289949E+01  0.10129959443E+03  0.18003905217E+02  0.10300416400E+03  0.00000000000E+00 0.  1.
         21    1    1    2  502  501 -0.64561915910E-03  0.31976570316E-03  0.19416267037E-02  0.20709873152E-02  0.00000000000E+00 0.  1.
<mgrwt>
<rscale>  1 0.50275089E+03</rscale>
<asrwt>0</asrwt>
<pdfrwt beam="1">  1        1 0.22978822E+00 0.50275089E+03</pdfrwt>
<pdfrwt beam="2">0</pdfrwt>
<totfact> 0.75664920E+00</totfact>
</mgrwt>
</event>
<event>
 6    1  0.5744123E-003  0.6467755E+03  0.7818608E-02  0.9812849E-01
          1   -1    0    0  502    0  0.00000000000E+00  0.00000000000E+00  0.10458671977E+03  0.10458671977E+03  0.00000000000E+00 0.  1.
         13   -1    0    0    0    0 -0.00000000000E+00 -0.00000000000E+00 -0.10000000000E+04  0.10000000000E+04  0.00000000000E+00 0.  1.
    9000005    2    1    2  501    0 -0.47195603595E-02  0.14140337839E-02 -0.89541940258E+03  0.11045788612E+04  0.64677550518E+03 0.  0.
         13    1    3    3    0    0 -0.26983873199E+03 -0.15334245565E+03 -0.29255498087E+03  0.42651525977E+03  0.00000000000E+00 0.  1.
          3    1    3    3  501    0  0.26983401243E+03  0.15334386969E+03 -0.60286442171E+03  0.67806360144E+03  0.00000000000E+00 0.  1.
         21    1    1    2  502  501  0.47195603595E-02 -0.14140337839E-02  0.61223450316E-02  0.78585526794E-02  0.00000000000E+00 0. -1.
<mgrwt>
<rscale>  1 0.64677551E+03</rscale>
<asrwt>0</asrwt>
<pdfrwt beam="1">  1        1 0.38031615E+00 0.64677551E+03</pdfrwt>
<pdfrwt beam="2">0</pdfrwt>
<totfact> 0.16366795E+00</totfact>
</mgrwt>
</event>
<event>
 6    1  0.5744123E-003  0.6498197E+03  0.7818608E-02  0.9807118E-01
          1   -1    0    0  502    0  0.00000000000E+00  0.00000000000E+00  0.10561754724E+03  0.10561754724E+03  0.00000000000E+00 0.  1.
         13   -1    0    0    0    0 -0.00000000000E+00 -0.00000000000E+00 -0.10000000000E+04  0.10000000000E+04  0.00000000000E+00 0.  1.
    9000005    2    1    2  501    0  0.11184737678E-02  0.66751513626E-03 -0.89443357929E+03  0.11055664041E+04  0.64981970282E+03 0.  0.
         13    1    3    3    0    0  0.28926471322E+03 -0.14007267920E+03 -0.52831643827E+03  0.61839525283E+03  0.00000000000E+00 0.  1.
          3    1    3    3  501    0 -0.28926359475E+03  0.14007334672E+03 -0.36611714101E+03  0.48717115129E+03  0.00000000000E+00 0.  1.
         21    1    1    2  502  501 -0.11184737678E-02 -0.66751513626E-03  0.51126531090E-01  0.51143120176E-01  0.00000000000E+00 0.  1.
<mgrwt>
<rscale>  1 0.64981970E+03</rscale>
<asrwt>0</asrwt>
<pdfrwt beam="1">  1        1 0.38406462E+00 0.64981970E+03</pdfrwt>
<pdfrwt beam="2">0</pdfrwt>
<totfact> 0.15745741E+00</totfact>
</mgrwt>
</event>
<event>
 6    1  0.5744123E-003  0.6437488E+03  0.7818608E-02  0.9818580E-01
          1   -1    0    0  502    0  0.00000000000E+00  0.00000000000E+00  0.10360390546E+03  0.10360390546E+03  0.00000000000E+00 0.  1.
         13   -1    0    0    0    0 -0.00000000000E+00 -0.00000000000E+00 -0.10000000000E+04  0.10000000000E+04  0.00000000000E+00 0.  1.
    9000005    2    1    2  501    0  0.81350712678E-03 -0.96077063289E-03 -0.89639624482E+03  0.11036026376E+04  0.64374882834E+03 0.  0.
         13    1    3    3    0    0  0.11614409036E+03  0.39279328145E+02  0.62003286127E+02  0.13739258654E+03  0.00000000000E+00 0.  1.
          1    1    3    3  501    0 -0.11614327686E+03 -0.39280288916E+02 -0.95839953095E+03  0.96621005106E+03  0.00000000000E+00 0.  1.
         21    1    1    2  502  501 -0.81350712678E-03  0.96077063289E-03  0.15027577036E-03  0.12678552210E-02  0.00000000000E+00 0.  1.
<mgrwt>
<rscale>  1 0.64374883E+03</rscale>
<asrwt>0</asrwt>
<pdfrwt beam="1">  1        1 0.37674227E+00 0.64374883E+03</pdfrwt>
<pdfrwt beam="2">0</pdfrwt>
<totfact> 0.16980972E+00</totfact>
</mgrwt>
</event>
<event>
 6    1  0.5744123E-003  0.6850552E+03  0.7818608E-02  0.9743137E-01
          1   -1    0    0  502    0  0.00000000000E+00  0.00000000000E+00  0.11802910502E+03  0.11802910502E+03  0.00000000000E+00 0.  1.
         13   -1    0    0    0    0 -0.00000000000E+00 -0.00000000000E+00 -0.10000000000E+04  0.10000000000E+04  0.00000000000E+00 0.  1.
    9000005    2    1    2  501    0 -0.28062421962E-01 -0.19626478787E-01 -0.88267436560E+03  0.11173248014E+04  0.68505523494E+03 0.  0.
         13    1    3    3    0    0 -0.88733533227E+02  0.31636765463E+03 -0.28354147985E+03  0.43400219310E+03  0.00000000000E+00 0.  1.
          1    1    3    3  501    0  0.88705470805E+02 -0.31638728111E+03 -0.59913288576E+03  0.68332260829E+03  0.00000000000E+00 0.  1.
         21    1    1    2  502  501  0.28062421962E-01  0.19626478787E-01  0.70347062519E+00  0.70430364098E+00  0.00000000000E+00 0.  1.
<mgrwt>
<rscale>  1 0.68505524E+03</rscale>
<asrwt>0</asrwt>
<pdfrwt beam="1">  1        1 0.42919765E+00 0.68505524E+03</pdfrwt>
<pdfrwt beam="2">0</pdfrwt>
<totfact> 0.98211204E-01</totfact>
</mgrwt>
</event>
<event>
 6    1  0.5744123E-003  0.6457631E+03  0.7818608E-02  0.9814762E-01
          1   -1    0    0  502    0  0.00000000000E+00  0.00000000000E+00  0.10425272420E+03  0.10425272420E+03  0.00000000000E+00 0.  1.
         13   -1    0    0    0    0 -0.00000000000E+00 -0.00000000000E+00 -0.10000000000E+04  0.10000000000E+04  0.00000000000E+00 0.  1.
    9000005    2    1    2  501    0  0.22928516093E-03  0.67624243519E-03 -0.89574628181E+03  0.11042515003E+04  0.64576309478E+03 0.  0.
         13    1    3    3    0    0  0.10587592840E+03  0.29856842628E+03 -0.34108582473E+03  0.46550226339E+03  0.00000000000E+00 0.  1.
          1    1    3    3  501    0 -0.10587569911E+03 -0.29856775004E+03 -0.55466045708E+03  0.63874923693E+03  0.00000000000E+00 0.  1.
         21    1    1    2  502  501 -0.22928516092E-03 -0.67624243519E-03 -0.99398616316E-03  0.12238807167E-02  0.00000000000E+00 0. -1.
<mgrwt>
<rscale>  1 0.64576309E+03</rscale>
<asrwt>0</asrwt>
<pdfrwt beam="1">  1        1 0.37910161E+00 0.64576309E+03</pdfrwt>
<pdfrwt beam="2">0</pdfrwt>
<totfact> 0.16573052E+00</totfact>
</mgrwt>
</event>
<event>
 6    1  0.5744123E-003  0.6134518E+03  0.7818608E-02  0.9877884E-01
          1   -1    0    0  502    0  0.00000000000E+00  0.00000000000E+00  0.94082053546E+02  0.94082053546E+02  0.00000000000E+00 0.  1.
         13   -1    0    0    0    0 -0.00000000000E+00 -0.00000000000E+00 -0.10000000000E+04  0.10000000000E+04  0.00000000000E+00 0.  1.
    9000005    2    1    2  501    0 -0.48666341797E-04  0.44630818238E-04 -0.90591920967E+03  0.10940807886E+04  0.61345183800E+03 0.  0.
         13    1    3    3    0    0  0.29973877846E+03  0.64378874492E+02 -0.43577852907E+03  0.53281413381E+03  0.00000000000E+00 0.  1.
          1    1    3    3  501    0 -0.29973882713E+03 -0.64378829861E+02 -0.47014068060E+03  0.56126665479E+03  0.00000000000E+00 0.  1.
         21    1    1    2  502  501  0.48666341765E-04 -0.44630818241E-04  0.12632157599E-02  0.12649404645E-02  0.00000000000E+00 0.  1.
<mgrwt>
<rscale>  1 0.61345184E+03</rscale>
<asrwt>0</asrwt>
<pdfrwt beam="1">  1        1 0.34211728E+00 0.61345184E+03</pdfrwt>
<pdfrwt beam="2">0</pdfrwt>
<totfact> 0.24197560E+00</totfact>
</mgrwt>
</event>
<event>
 6    1  0.5744123E-003  0.6444528E+03  0.7818608E-02  0.9817244E-01
          1   -1    0    0  502    0  0.00000000000E+00  0.00000000000E+00  0.10383282875E+03  0.10383282875E+03  0.00000000000E+00 0.  1.
         13   -1    0    0    0    0 -0.00000000000E+00 -0.00000000000E+00 -0.10000000000E+04  0.10000000000E+04  0.00000000000E+00 0.  1.
    9000005    2    1    2  501    0  0.65244065171E-02 -0.20673806255E-02 -0.89616489772E+03  0.11038256169E+04  0.64445284432E+03 0.  0.
         13    1    3    3    0    0 -0.50334417186E+02 -0.21082193213E+03 -0.85647408990E+03  0.88347456516E+03  0.00000000000E+00 0.  1.
          1    1    3    3  501    0  0.50340941592E+02  0.21081986475E+03 -0.39690807827E+02  0.22035105174E+03  0.00000000000E+00 0.  1.
         21    1    1    2  502  501 -0.65244065171E-02  0.20673806255E-02 -0.22735263793E-02  0.72118558810E-02  0.00000000000E+00 0. -1.
<mgrwt>
<rscale>  1 0.64445284E+03</rscale>
<asrwt>0</asrwt>
<pdfrwt beam="1">  1        1 0.37757472E+00 0.64445284E+03</pdfrwt>
<pdfrwt beam="2">0</pdfrwt>
<totfact> 0.16835985E+00</totfact>
</mgrwt>
</event>
<event>
 6    1  0.5744123E-003  0.6414528E+03  0.7818608E-02  0.9822951E-01
          1   -1    0    0  502    0  0.00000000000E+00  0.00000000000E+00  0.10290962024E+03  0.10290962024E+03  0.00000000000E+00 0.  1.
         13   -1    0    0    0    0 -0.00000000000E+00 -0.00000000000E+00 -0.10000000000E+04  0.10000000000E+04  0.00000000000E+00 0.  1.
    9000005    2    1    2  501    0  0.42758651821E-03  0.16692526297E-01 -0.89713284574E+03  0.11028639893E+04  0.64145275406E+03 0.  0.
         13    1    3    3    0    0 -0.22031635277E+03  0.23238569268E+03 -0.47965535772E+03  0.57672494973E+03  0.00000000000E+00 0.  1.
          1    1    3    3  501    0  0.22031678036E+03 -0.23236900015E+03 -0.41747748803E+03  0.52613903956E+03  0.00000000000E+00 0.  1.
         21    1    1    2  502  501 -0.42758651820E-03 -0.16692526297E-01  0.42465980843E-01  0.45630941184E-01  0.00000000000E+00 0.  1.
<mgrwt>
<rscale>  1 0.64145275E+03</rscale>
<asrwt>0</asrwt>
<pdfrwt beam="1">  1        1 0.37421759E+00 0.64145275E+03</pdfrwt>
<pdfrwt beam="2">0</pdfrwt>
<totfact> 0.17428527E+00</totfact>
</mgrwt>
</event>
<event>
 6    1  0.5744123E-003  0.6586031E+03  0.7818608E-02  0.9790769E-01
          1   -1    0    0  502    0  0.00000000000E+00  0.00000000000E+00  0.10861904402E+03  0.10861904402E+03  0.00000000000E+00 0.  1.
         13   -1    0    0    0    0 -0.00000000000E+00 -0.00000000000E+00 -0.10000000000E+04  0.10000000000E+04  0.00000000000E+00 0.  1.
    9000005    2    1    2  501    0 -0.28233702491E+00  0.18351571917E+00 -0.89136451502E+03  0.11082819053E+04  0.65860304400E+03 0.  0.
         13    1    3    3    0    0  0.18297081887E+03  0.90195452084E+02 -0.10714571845E+02  0.20427516292E+03  0.00000000000E+00 0.  1.
          3    1    3    3  501    0 -0.18325315590E+03 -0.90011936365E+02 -0.88064994318E+03  0.90400674237E+03  0.00000000000E+00 0.  1.
         21    1    1    2  502  501  0.28233702491E+00 -0.18351571917E+00 -0.16440956777E-01  0.33713872498E+00  0.00000000000E+00 0. -1.
<mgrwt>
<rscale>  1 0.65860313E+03</rscale>
<asrwt>0</asrwt>
<pdfrwt beam="1">  1        1 0.39497917E+00 0.65860313E+03</pdfrwt>
<pdfrwt beam="2">0</pdfrwt>
<totfact> 0.14062540E+00</totfact>
</mgrwt>
</event>
<event>
 6    1  0.5744123E-003  0.6501607E+03  0.7818608E-02  0.9806478E-01
          1   -1    0    0  502    0  0.00000000000E+00  0.00000000000E+00  0.10568547026E+03  0.10568547026E+03  0.00000000000E+00 0.  1.
         13   -1    0    0    0    0 -0.00000000000E+00 -0.00000000000E+00 -0.10000000000E+04  0.10000000000E+04  0.00000000000E+00 0.  1.
    9000005    2    1    2  501    0 -0.19301728059E-04 -0.40900131047E-03 -0.89432276568E+03  0.11056772241E+04  0.65016068382E+03 0.  0.
         13    1    3    3    0    0 -0.25406889389E+03 -0.53025505903E+02 -0.78004282762E+03  0.82208851108E+03  0.00000000000E+00 0.  1.
          1    1    3    3  501    0  0.25406887459E+03  0.53025096901E+02 -0.11427993806E+03  0.28358871307E+03  0.00000000000E+00 0.  1.
         21    1    1    2  502  501  0.19301728079E-04  0.40900131046E-03  0.82359391977E-02  0.82461111499E-02  0.00000000000E+00 0. -1.
<mgrwt>
<rscale>  1 0.65016068E+03</rscale>
<asrwt>0</asrwt>
<pdfrwt beam="1">  1        1 0.38431161E+00 0.65016068E+03</pdfrwt>
<pdfrwt beam="2">0</pdfrwt>
<totfact> 0.15705209E+00</totfact>
</mgrwt>
</event>
<event>
 6    1  0.5744123E-003  0.6345273E+03  0.7818608E-02  0.9836254E-01
          1   -1    0    0  502    0  0.00000000000E+00  0.00000000000E+00  0.10144224793E+03  0.10144224793E+03  0.00000000000E+00 0.  1.
         13   -1    0    0    0    0 -0.00000000000E+00 -0.00000000000E+00 -0.10000000000E+04  0.10000000000E+04  0.00000000000E+00 0.  1.
    9000005    2    1    2  501    0  0.64420028303E-01  0.25484503938E-01 -0.89934209922E+03  0.11006548472E+04  0.63452728589E+03 0.  0.
         13    1    3    3    0    0 -0.13621792869E+03 -0.20898432794E+03 -0.10967294810E+03  0.27250308066E+03  0.00000000000E+00 0.  1.
          1    1    3    3  501    0  0.13628234872E+03  0.20900981245E+03 -0.78966915111E+03  0.82815176658E+03  0.00000000000E+00 0.  1.
         21    1    1    2  502  501 -0.64420028303E-01 -0.25484503938E-01  0.78434714504E+00  0.78740068829E+00  0.00000000000E+00 0.  1.
<mgrwt>
<rscale>  1 0.63452729E+03</rscale>
<asrwt>0</asrwt>
<pdfrwt beam="1">  1        1 0.36888168E+00 0.63452729E+03</pdfrwt>
<pdfrwt beam="2">0</pdfrwt>
<totfact> 0.18418740E+00</totfact>
</mgrwt>
</event>
<event>
 6    1  0.1098070E-002  0.5093973E+03  0.7818608E-02  0.1011355E+00
          1   -1    0    0  502    0  0.00000000000E+00  0.00000000000E+00  0.64871589809E+02  0.64871589809E+02  0.00000000000E+00 0.  1.
         13   -1    0    0    0    0 -0.00000000000E+00 -0.00000000000E+00 -0.10000000000E+04  0.10000000000E+04  0.00000000000E+00 0.  1.
    9000005    2    1    2  501    0  0.55833822405E-03  0.33543212041E-03 -0.93512760187E+03  0.10648705517E+04  0.50939734995E+03 0.  0.
         13    1    3    3    0    0  0.86854930106E+02 -0.16342579314E+03 -0.83336080872E+03  0.85366387194E+03  0.00000000000E+00 0.  1.
          1    1    3    3  501    0 -0.86854371768E+02  0.16342612857E+03 -0.10176679315E+03  0.21120667978E+03  0.00000000000E+00 0.  1.
         21    1    1    2  502  501 -0.55833822406E-03 -0.33543212041E-03 -0.80832280270E-03  0.10380953873E-02  0.00000000000E+00 0. -1.
<mgrwt>
<rscale>  1 0.50939735E+03</rscale>
<asrwt>0</asrwt>
<pdfrwt beam="1">  1        1 0.23589719E+00 0.50939735E+03</pdfrwt>
<pdfrwt beam="2">0</pdfrwt>
<totfact> 0.71053806E+00</totfact>
</mgrwt>
</event>
<event>
 6    1  0.5744123E-003  0.6591403E+03  0.7818608E-02  0.9789778E-01
          1   -1    0    0  502    0  0.00000000000E+00  0.00000000000E+00  0.13361505281E+03  0.13361505281E+03  0.00000000000E+00 0.  1.
         13   -1    0    0    0    0 -0.00000000000E+00 -0.00000000000E+00 -0.10000000000E+04  0.10000000000E+04  0.00000000000E+00 0.  1.
    9000005    2    1    2  501    0  0.12710485131E+00  0.96032111478E+00 -0.89137310351E+03  0.11086081272E+04  0.65913961469E+03 0.  0.
         13    1    3    3    0    0  0.11810044417E+03  0.27272966926E+03 -0.68744036946E+03  0.74893487632E+03  0.00000000000E+00 0.  1.
          1    1    3    3  501    0 -0.11797333932E+03 -0.27176934814E+03 -0.20393273405E+03  0.35967325088E+03  0.00000000000E+00 0.  1.
         21    1    1    2  502  501 -0.12710485131E+00 -0.96032111478E+00  0.24988156319E+02  0.25006925611E+02  0.00000000000E+00 0. -1.
<mgrwt>
<rscale>  1 0.65914033E+03</rscale>
<asrwt>0</asrwt>
<pdfrwt beam="1">  1        1 0.48587394E+00 0.65914033E+03</pdfrwt>
<pdfrwt beam="2">0</pdfrwt>
<totfact> 0.53899971E-01</totfact>
</mgrwt>
</event>
<event>
 6    1  0.5744123E-003  0.6429732E+03  0.7818608E-02  0.9820054E-01
          1   -1    0    0  502    0  0.00000000000E+00  0.00000000000E+00  0.10335697797E+03  0.10335697797E+03  0.00000000000E+00 0.  1.
         13   -1    0    0    0    0 -0.00000000000E+00 -0.00000000000E+00 -0.10000000000E+04  0.10000000000E+04  0.00000000000E+00 0.  1.
    9000005    2    1    2  501    0 -0.13579035877E-03 -0.39062303384E-03 -0.89664634005E+03  0.11033536343E+04  0.64297323673E+03 0.  0.
         13    1    3    3    0    0 -0.14047527229E+03 -0.25592850524E+03 -0.21732253040E+03  0.36395299715E+03  0.00000000000E+00 0.  1.
          1    1    3    3  501    0  0.14047513650E+03  0.25592811461E+03 -0.67932380965E+03  0.73940063712E+03  0.00000000000E+00 0.  1.
         21    1    1    2  502  501  0.13579035877E-03  0.39062303384E-03  0.33180250627E-02  0.33436979069E-02  0.00000000000E+00 0.  1.
<mgrwt>
<rscale>  1 0.64297324E+03</rscale>
<asrwt>0</asrwt>
<pdfrwt beam="1">  1        1 0.37584435E+00 0.64297324E+03</pdfrwt>
<pdfrwt beam="2">0</pdfrwt>
<totfact> 0.17138747E+00</totfact>
</mgrwt>
</event>
<event>
 6    1  0.5744123E-003  0.4884179E+03  0.7818608E-02  0.1016847E+00
          3   -1    0    0  502    0  0.00000000000E+00  0.00000000000E+00  0.59638026129E+02  0.59638026129E+02  0.00000000000E+00 0.  1.
         13   -1    0    0    0    0 -0.00000000000E+00 -0.00000000000E+00 -0.10000000000E+04  0.10000000000E+04  0.00000000000E+00 0.  1.
    9000005    2    1    2  501    0 -0.26842680256E-05 -0.11162812854E-04 -0.94036199560E+03  0.10596380016E+04  0.48841786573E+03 0.  0.
         13    1    3    3    0    0  0.19575985312E+03  0.14102289849E+03 -0.55218305127E+03  0.60259065716E+03  0.00000000000E+00 0.  1.
          1    1    3    3  501    0 -0.19575985580E+03 -0.14102290966E+03 -0.38817894433E+03  0.45704734439E+03  0.00000000000E+00 0.  1.
         21    1    1    2  502  501  0.26842680262E-05  0.11162812855E-04  0.21728654578E-04  0.24575355856E-04  0.00000000000E+00 0.  1.
<mgrwt>
<rscale>  1 0.48841787E+03</rscale>
<asrwt>0</asrwt>
<pdfrwt beam="1">  1        3 0.21686601E+00 0.48841787E+03</pdfrwt>
<pdfrwt beam="2">0</pdfrwt>
<totfact> 0.60505458E-01</totfact>
</mgrwt>
</event>
<event>
 6    1  0.5744123E-003  0.6516465E+03  0.7818608E-02  0.9803695E-01
          1   -1    0    0  502    0  0.00000000000E+00  0.00000000000E+00  0.10656939851E+03  0.10656939851E+03  0.00000000000E+00 0.  1.
         13   -1    0    0    0    0 -0.00000000000E+00 -0.00000000000E+00 -0.10000000000E+04  0.10000000000E+04  0.00000000000E+00 0.  1.
    9000005    2    1    2  501    0  0.99173022912E-02 -0.69928202612E-03 -0.89383914412E+03  0.11061607349E+04  0.65164649606E+03 0.  0.
         13    1    3    3    0    0  0.18790068643E+01  0.28712523025E+03 -0.18550537838E+03  0.34184305451E+03  0.00000000000E+00 0.  1.
          3    1    3    3  501    0 -0.18690895620E+01 -0.28712592953E+03 -0.70833376574E+03  0.76431768041E+03  0.00000000000E+00 0.  1.
         21    1    1    2  502  501 -0.99173022912E-02  0.69928202609E-03  0.40854263810E+00  0.40866358907E+00  0.00000000000E+00 0.  1.
<mgrwt>
<rscale>  1 0.65164650E+03</rscale>
<asrwt>0</asrwt>
<pdfrwt beam="1">  1        1 0.38752590E+00 0.65164650E+03</pdfrwt>
<pdfrwt beam="2">0</pdfrwt>
<totfact> 0.15194987E+00</totfact>
</mgrwt>
</event>
<event>
 6    1  0.5744123E-003  0.6561052E+03  0.7818608E-02  0.9795390E-01
          1   -1    0    0  502    0  0.00000000000E+00  0.00000000000E+00  0.10787412148E+03  0.10787412148E+03  0.00000000000E+00 0.  1.
         13   -1    0    0    0    0 -0.00000000000E+00 -0.00000000000E+00 -0.10000000000E+04  0.10000000000E+04  0.00000000000E+00 0.  1.
    9000005    2    1    2  501    0  0.45517810530E-02 -0.95708873093E-03 -0.89238145246E+03  0.11076185052E+04  0.65610524793E+03 0.  0.
         13    1    3    3    0    0 -0.20626465726E+03  0.20710194484E+03 -0.19476371261E+03  0.35123955948E+03  0.00000000000E+00 0.  1.
          1    1    3    3  501    0  0.20626920904E+03 -0.20710290193E+03 -0.69761773986E+03  0.75637894574E+03  0.00000000000E+00 0.  1.
         21    1    1    2  502  501 -0.45517810530E-02  0.95708873093E-03  0.25557394553E+00  0.25561626780E+00  0.00000000000E+00 0. -1.
<mgrwt>
<rscale>  1 0.65610525E+03</rscale>
<asrwt>0</asrwt>
<pdfrwt beam="1">  1        1 0.39227036E+00 0.65610525E+03</pdfrwt>
<pdfrwt beam="2">0</pdfrwt>
<totfact> 0.14464451E+00</totfact>
</mgrwt>
</event>
<event>
 6    1  0.5744123E-003  0.6284248E+03  0.7818608E-02  0.9848128E-01
          3   -1    0    0  502    0  0.00000000000E+00  0.00000000000E+00  0.98731486025E+02  0.98731486025E+02  0.00000000000E+00 0.  1.
         13   -1    0    0    0    0 -0.00000000000E+00 -0.00000000000E+00 -0.10000000000E+04  0.10000000000E+04  0.00000000000E+00 0.  1.
    9000005    2    1    2  501    0  0.11335696070E-02  0.15047075554E-02 -0.90127009202E+03  0.10987290285E+04  0.62842477620E+03 0.  0.
         13    1    3    3    0    0  0.80136258351E+02  0.28830210279E+03 -0.28302787591E+03  0.41187947378E+03  0.00000000000E+00 0.  1.
          3    1    3    3  501    0 -0.80135124781E+02 -0.28830059808E+03 -0.61824221610E+03  0.68684955474E+03  0.00000000000E+00 0.  1.
         21    1    1    2  502  501 -0.11335696070E-02 -0.15047075553E-02  0.15780408782E-02  0.24575064383E-02  0.00000000000E+00 0. -1.
<mgrwt>
<rscale>  1 0.62842478E+03</rscale>
<asrwt>0</asrwt>
<pdfrwt beam="1">  1        3 0.35902434E+00 0.62842478E+03</pdfrwt>
<pdfrwt beam="2">0</pdfrwt>
<totfact> 0.97836106E-02</totfact>
</mgrwt>
</event>
<event>
 6    1  0.5744123E-003  0.6442125E+03  0.7818608E-02  0.9817700E-01
          1   -1    0    0  502    0  0.00000000000E+00  0.00000000000E+00  0.12872055404E+03  0.12872055404E+03  0.00000000000E+00 0.  1.
         13   -1    0    0    0    0 -0.00000000000E+00 -0.00000000000E+00 -0.10000000000E+04  0.10000000000E+04  0.00000000000E+00 0.  1.
    9000005    2    1    2  501    0 -0.30508871198E+01 -0.26271201357E+01 -0.89606830028E+03  0.11036068731E+04  0.64419990833E+03 0.  0.
         13    1    3    3    0    0  0.19262572906E+03  0.24888567586E+03 -0.54607222344E+03  0.63027265874E+03  0.00000000000E+00 0.  1.
          1    1    3    3  501    0 -0.19567661618E+03 -0.25151279599E+03 -0.34999607684E+03  0.47333421434E+03  0.00000000000E+00 0.  1.
         21    1    1    2  502  501  0.30508871198E+01  0.26271201357E+01  0.24788854320E+02  0.25113680951E+02  0.00000000000E+00 0. -1.
<mgrwt>
<rscale>  1 0.64421249E+03</rscale>
<asrwt>0</asrwt>
<pdfrwt beam="1">  1        1 0.46807573E+00 0.64421249E+03</pdfrwt>
<pdfrwt beam="2">0</pdfrwt>
<totfact> 0.65583665E-01</totfact>
</mgrwt>
</event>
<event>
 6    1  0.5744123E-003  0.6547980E+03  0.7818608E-02  0.9797817E-01
          1   -1    0    0  502    0  0.00000000000E+00  0.00000000000E+00  0.10719189377E+03  0.10719189377E+03  0.00000000000E+00 0.  1.
         13   -1    0    0    0    0 -0.00000000000E+00 -0.00000000000E+00 -0.10000000000E+04  0.10000000000E+04  0.00000000000E+00 0.  1.
    9000005    2    1    2  501    0 -0.13538134060E-02 -0.25335024236E-03 -0.89280958939E+03  0.11071898697E+04  0.65479801827E+03 0.  0.
         13    1    3    3    0    0 -0.29375224132E+02 -0.13544054907E+03  0.55145327008E+02  0.14915781313E+03  0.00000000000E+00 0.  1.
          1    1    3    3  501    0  0.29373870318E+02  0.13544029572E+03 -0.94795491639E+03  0.95803205660E+03  0.00000000000E+00 0.  1.
         21    1    1    2  502  501  0.13538134060E-02  0.25335024238E-03  0.14831592147E-02  0.20240450439E-02  0.00000000000E+00 0.  1.
<mgrwt>
<rscale>  1 0.65479802E+03</rscale>
<asrwt>0</asrwt>
<pdfrwt beam="1">  1        1 0.38978953E+00 0.65479802E+03</pdfrwt>
<pdfrwt beam="2">0</pdfrwt>
<totfact> 0.14839364E+00</totfact>
</mgrwt>
</event>
<event>
 6    1  0.5744123E-003  0.6487982E+03  0.7818608E-02  0.9809037E-01
          1   -1    0    0  502    0  0.00000000000E+00  0.00000000000E+00  0.10528620743E+03  0.10528620743E+03  0.00000000000E+00 0.  1.
         13   -1    0    0    0    0 -0.00000000000E+00 -0.00000000000E+00 -0.10000000000E+04  0.10000000000E+04  0.00000000000E+00 0.  1.
    9000005    2    1    2  501    0  0.61505456074E-02  0.55409343386E-02 -0.89476484127E+03  0.11052344919E+04  0.64879824348E+03 0.  0.
         13    1    3    3    0    0 -0.63140343481E+02 -0.27585390708E+03 -0.17721862463E+03  0.33389896967E+03  0.00000000000E+00 0.  1.
          3    1    3    3  501    0  0.63146494027E+02  0.27585944802E+03 -0.71754621664E+03  0.77133552219E+03  0.00000000000E+00 0.  1.
         21    1    1    2  502  501 -0.61505456074E-02 -0.55409343385E-02  0.51048701072E-01  0.51715578366E-01  0.00000000000E+00 0.  1.
<mgrwt>
<rscale>  1 0.64879824E+03</rscale>
<asrwt>0</asrwt>
<pdfrwt beam="1">  1        1 0.38285974E+00 0.64879824E+03</pdfrwt>
<pdfrwt beam="2">0</pdfrwt>
<totfact> 0.15943006E+00</totfact>
</mgrwt>
</event>
<event>
 6    1  0.5744123E-003  0.6505759E+03  0.7818608E-02  0.9805699E-01
          1   -1    0    0  502    0  0.00000000000E+00  0.00000000000E+00  0.10581224051E+03  0.10581224051E+03  0.00000000000E+00 0.  1.
         13   -1    0    0    0    0 -0.00000000000E+00 -0.00000000000E+00 -0.10000000000E+04  0.10000000000E+04  0.00000000000E+00 0.  1.
    9000005    2    1    2  501    0 -0.22069430656E-05  0.26341172088E-06 -0.89418776081E+03  0.11058122379E+04  0.65057586335E+03 0.  0.
         13    1    3    3    0    0 -0.19533048584E+03 -0.15024372109E+03 -0.80800461015E+03  0.84474766910E+03  0.00000000000E+00 0.  1.
          3    1    3    3  501    0  0.19533048363E+03  0.15024372135E+03 -0.86183150656E+02  0.26106456883E+03  0.00000000000E+00 0.  1.
         21    1    1    2  502  501  0.22069430520E-05 -0.26341172976E-06  0.13198038866E-05  0.25849304968E-05  0.00000000000E+00 0.  1.
<mgrwt>
<rscale>  1 0.65057586E+03</rscale>
<asrwt>0</asrwt>
<pdfrwt beam="1">  1        1 0.38477260E+00 0.65057586E+03</pdfrwt>
<pdfrwt beam="2">0</pdfrwt>
<totfact> 0.15630464E+00</totfact>
</mgrwt>
</event>
<event>
 6    1  0.5744123E-003  0.6606516E+03  0.7818608E-02  0.9786995E-01
          1   -1    0    0  502    0  0.00000000000E+00  0.00000000000E+00  0.10911986528E+03  0.10911986528E+03  0.00000000000E+00 0.  1.
         13   -1    0    0    0    0 -0.00000000000E+00 -0.00000000000E+00 -0.10000000000E+04  0.10000000000E+04  0.00000000000E+00 0.  1.
    9000005    2    1    2  501    0  0.11522260322E-02 -0.18326123391E-02 -0.89088459910E+03  0.11091149038E+04  0.66065157293E+03 0.  0.
         13    1    3    3    0    0  0.16655776821E+03 -0.31553267749E+02  0.30520429973E+02  0.17224574161E+03  0.00000000000E+00 0.  1.
          3    1    3    3  501    0 -0.16655661598E+03  0.31551435137E+02 -0.92140502907E+03  0.93686916215E+03  0.00000000000E+00 0.  1.
         21    1    1    2  502  501 -0.11522260322E-02  0.18326123391E-02  0.44643724729E-02  0.49615233942E-02  0.00000000000E+00 0. -1.
<mgrwt>
<rscale>  1 0.66065157E+03</rscale>
<asrwt>0</asrwt>
<pdfrwt beam="1">  1        1 0.39680035E+00 0.66065157E+03</pdfrwt>
<pdfrwt beam="2">0</pdfrwt>
<totfact> 0.13797346E+00</totfact>
</mgrwt>
</event>
<event>
 6    1  0.5744123E-003  0.6706381E+03  0.7818608E-02  0.9768806E-01
          1   -1    0    0  502    0  0.00000000000E+00  0.00000000000E+00  0.11244025588E+03  0.11244025588E+03  0.00000000000E+00 0.  1.
         13   -1    0    0    0    0 -0.00000000000E+00 -0.00000000000E+00 -0.10000000000E+04  0.10000000000E+04  0.00000000000E+00 0.  1.
    9000005    2    1    2  501    0 -0.87185242933E-03  0.14251624945E-02 -0.88756053142E+03  0.11124384090E+04  0.67063814150E+03 0.  0.
         13    1    3    3    0    0 -0.11125955914E+03  0.27086944977E+03 -0.17278365923E+03  0.34000461941E+03  0.00000000000E+00 0.  1.
          3    1    3    3  501    0  0.11125868729E+03 -0.27086802461E+03 -0.71477687219E+03  0.77243378957E+03  0.00000000000E+00 0.  1.
         21    1    1    2  502  501  0.87185242932E-03 -0.14251624945E-02  0.78730038578E-03  0.18469046244E-02  0.00000000000E+00 0.  1.
<mgrwt>
<rscale>  1 0.67063814E+03</rscale>
<asrwt>0</asrwt>
<pdfrwt beam="1">  1        1 0.40887452E+00 0.67063814E+03</pdfrwt>
<pdfrwt beam="2">0</pdfrwt>
<totfact> 0.12163243E+00</totfact>
</mgrwt>
</event>
<event>
 6    1  0.5744123E-003  0.6570979E+03  0.7818608E-02  0.9793551E-01
          1   -1    0    0  502    0  0.00000000000E+00  0.00000000000E+00  0.10794445825E+03  0.10794445825E+03  0.00000000000E+00 0.  1.
         13   -1    0    0    0    0 -0.00000000000E+00 -0.00000000000E+00 -0.10000000000E+04  0.10000000000E+04  0.00000000000E+00 0.  1.
    9000005    2    1    2  501    0 -0.16808395458E-04  0.60041019992E-04 -0.89205558586E+03  0.11079443819E+04  0.65709785044E+03 0.  0.
         13    1    3    3    0    0  0.79345106240E+02 -0.25930002945E+03 -0.75881160027E+03  0.80580841139E+03  0.00000000000E+00 0.  1.
          1    1    3    3  501    0 -0.79345123048E+02  0.25930008950E+03 -0.13324398559E+03  0.30213597049E+03  0.00000000000E+00 0.  1.
         21    1    1    2  502  501  0.16808395466E-04 -0.60041019973E-04  0.44113013369E-04  0.76376725421E-04  0.00000000000E+00 0. -1.
<mgrwt>
<rscale>  1 0.65709785E+03</rscale>
<asrwt>0</asrwt>
<pdfrwt beam="1">  1        1 0.39252613E+00 0.65709785E+03</pdfrwt>
<pdfrwt beam="2">0</pdfrwt>
<totfact> 0.14424013E+00</totfact>
</mgrwt>
</event>
<event>
 6    1  0.5744123E-003  0.6625074E+03  0.7818608E-02  0.9783589E-01
          1   -1    0    0  502    0  0.00000000000E+00  0.00000000000E+00  0.10972917828E+03  0.10972917828E+03  0.00000000000E+00 0.  1.
         13   -1    0    0    0    0 -0.00000000000E+00 -0.00000000000E+00 -0.10000000000E+04  0.10000000000E+04  0.00000000000E+00 0.  1.
    9000005    2    1    2  501    0  0.41041528661E-04 -0.42179968318E-05 -0.89027097973E+03  0.11097290150E+04  0.66250741077E+03 0.  0.
         13    1    3    3    0    0  0.12194299226E+03  0.30683279446E+03 -0.48984894088E+03  0.59073550934E+03  0.00000000000E+00 0.  1.
          3    1    3    3  501    0 -0.12194295121E+03 -0.30683279867E+03 -0.40042203885E+03  0.51899350564E+03  0.00000000000E+00 0.  1.
         21    1    1    2  502  501 -0.41041528667E-04  0.42179968459E-05  0.15800694772E-03  0.16330460526E-03  0.00000000000E+00 0. -1.
<mgrwt>
<rscale>  1 0.66250741E+03</rscale>
<asrwt>0</asrwt>
<pdfrwt beam="1">  1        1 0.39901604E+00 0.66250741E+03</pdfrwt>
<pdfrwt beam="2">0</pdfrwt>
<totfact> 0.13482682E+00</totfact>
</mgrwt>
</event>
<event>
 6    1  0.5744123E-003  0.6431157E+03  0.7818608E-02  0.9819784E-01
          1   -1    0    0  502    0  0.00000000000E+00  0.00000000000E+00  0.10352939863E+03  0.10352939863E+03  0.00000000000E+00 0.  1.
         13   -1    0    0    0    0 -0.00000000000E+00 -0.00000000000E+00 -0.10000000000E+04  0.10000000000E+04  0.00000000000E+00 0.  1.
    9000005    2    1    2  501    0  0.80026638844E-02 -0.47076296068E-02 -0.89660036849E+03  0.11033992998E+04  0.64311569247E+03 0.  0.
         13    1    3    3    0    0 -0.20908703666E+03 -0.41037719600E+02 -0.86148186829E+03  0.88744154327E+03  0.00000000000E+00 0.  1.
          3    1    3    3  501    0  0.20909503932E+03  0.41033011970E+02 -0.35118500199E+02  0.21595775651E+03  0.00000000000E+00 0.  1.
         21    1    1    2  502  501 -0.80026638844E-02  0.47076296068E-02  0.12976712379E+00  0.13009885020E+00  0.00000000000E+00 0.  1.
<mgrwt>
<rscale>  1 0.64311569E+03</rscale>
<asrwt>0</asrwt>
<pdfrwt beam="1">  1        1 0.37647133E+00 0.64311569E+03</pdfrwt>
<pdfrwt beam="2">0</pdfrwt>
<totfact> 0.17029677E+00</totfact>
</mgrwt>
</event>
<event>
 6    1  0.5744123E-003  0.6422641E+03  0.7818608E-02  0.9821404E-01
          1   -1    0    0  502    0  0.00000000000E+00  0.00000000000E+00  0.10317123870E+03  0.10317123870E+03  0.00000000000E+00 0.  1.
         13   -1    0    0    0    0 -0.00000000000E+00 -0.00000000000E+00 -0.10000000000E+04  0.10000000000E+04  0.00000000000E+00 0.  1.
    9000005    2    1    2  501    0  0.42477904292E-01  0.18413598834E-01 -0.89686081944E+03  0.11031149257E+04  0.64226412607E+03 0.  0.
         13    1    3    3    0    0  0.16194345949E+03 -0.27581680665E+03 -0.39904175264E+03  0.51140484477E+03  0.00000000000E+00 0.  1.
          3    1    3    3  501    0 -0.16190098159E+03  0.27583522025E+03 -0.49781906680E+03  0.59171008090E+03  0.00000000000E+00 0.  1.
         21    1    1    2  502  501 -0.42477904292E-01 -0.18413598834E-01  0.32058137427E-01  0.56313028247E-01  0.00000000000E+00 0. -1.
<mgrwt>
<rscale>  1 0.64226413E+03</rscale>
<asrwt>0</asrwt>
<pdfrwt beam="1">  1        1 0.37516893E+00 0.64226413E+03</pdfrwt>
<pdfrwt beam="2">0</pdfrwt>
<totfact> 0.17258744E+00</totfact>
</mgrwt>
</event>
<event>
 6    1  0.5744123E-003  0.6377125E+03  0.7818608E-02  0.9830113E-01
          3   -1    0    0  502    0  0.00000000000E+00  0.00000000000E+00  0.10170063876E+03  0.10170063876E+03  0.00000000000E+00 0.  1.
         13   -1    0    0    0    0 -0.00000000000E+00 -0.00000000000E+00 -0.10000000000E+04  0.10000000000E+04  0.00000000000E+00 0.  1.
    9000005    2    1    2  501    0  0.25469184661E-01 -0.64246643334E-03 -0.89832490395E+03  0.11016645621E+04  0.63771245383E+03 0.  0.
         13    1    3    3    0    0 -0.31458148819E+03 -0.18804100369E+02 -0.36546784837E+03  0.48257834089E+03  0.00000000000E+00 0.  1.
          1    1    3    3  501    0  0.31460695738E+03  0.18803457902E+02 -0.53285705558E+03  0.61908622125E+03  0.00000000000E+00 0.  1.
         21    1    1    2  502  501 -0.25469184661E-01  0.64246643334E-03  0.25542715183E-01  0.36076618873E-01  0.00000000000E+00 0. -1.
<mgrwt>
<rscale>  1 0.63771245E+03</rscale>
<asrwt>0</asrwt>
<pdfrwt beam="1">  1        3 0.36982128E+00 0.63771245E+03</pdfrwt>
<pdfrwt beam="2">0</pdfrwt>
<totfact> 0.85615209E-02</totfact>
</mgrwt>
</event>
<event>
 6    1  0.5744123E-003  0.6676809E+03  0.7818608E-02  0.9774156E-01
          1   -1    0    0  502    0  0.00000000000E+00  0.00000000000E+00  0.11144949064E+03  0.11144949064E+03  0.00000000000E+00 0.  1.
         13   -1    0    0    0    0 -0.00000000000E+00 -0.00000000000E+00 -0.10000000000E+04  0.10000000000E+04  0.00000000000E+00 0.  1.
    9000005    2    1    2  501    0 -0.35877625436E-04 -0.26755269687E-04 -0.88855056113E+03  0.11114494222E+04  0.66768085074E+03 0.  0.
         13    1    3    3    0    0 -0.23394047511E+03  0.15631034475E+03 -0.74339415402E+03  0.79485592279E+03  0.00000000000E+00 0.  1.
          1    1    3    3  501    0  0.23394043923E+03 -0.15631037150E+03 -0.14515640711E+03  0.31659349942E+03  0.00000000000E+00 0.  1.
         21    1    1    2  502  501  0.35877625437E-04  0.26755269668E-04  0.51770176841E-04  0.68433907328E-04  0.00000000000E+00 0. -1.
<mgrwt>
<rscale>  1 0.66768085E+03</rscale>
<asrwt>0</asrwt>
<pdfrwt beam="1">  1        1 0.40527173E+00 0.66768085E+03</pdfrwt>
<pdfrwt beam="2">0</pdfrwt>
<totfact> 0.12630605E+00</totfact>
</mgrwt>
</event>
<event>
 6    1  0.5744123E-003  0.5672904E+03  0.7818608E-02  0.9975693E-01
          1   -1    0    0  502    0  0.00000000000E+00  0.00000000000E+00  0.80512733921E+02  0.80512733921E+02  0.00000000000E+00 0.  1.
         13   -1    0    0    0    0 -0.00000000000E+00 -0.00000000000E+00 -0.10000000000E+04  0.10000000000E+04  0.00000000000E+00 0.  1.
    9000005    2    1    2  501    0 -0.42788930320E-01  0.10914146717E-01 -0.91953622922E+03  0.10804467991E+04  0.56729040791E+03 0.  0.
         13    1    3    3    0    0  0.19956994194E+03  0.18395214421E+03 -0.61659108319E+03  0.67368473113E+03  0.00000000000E+00 0.  1.
          1    1    3    3  501    0 -0.19961273087E+03 -0.18394123006E+03 -0.30294514603E+03  0.40676206798E+03  0.00000000000E+00 0.  1.
         21    1    1    2  502  501  0.42788930320E-01 -0.10914146717E-01  0.48963137401E-01  0.65934816149E-01  0.00000000000E+00 0.  1.
<mgrwt>
<rscale>  1 0.56729041E+03</rscale>
<asrwt>0</asrwt>
<pdfrwt beam="1">  1        1 0.29277420E+00 0.56729041E+03</pdfrwt>
<pdfrwt beam="2">0</pdfrwt>
<totfact> 0.39873684E+00</totfact>
</mgrwt>
</event>
<event>
 6    1  0.5744123E-003  0.6565742E+03  0.7818608E-02  0.9794521E-01
          3   -1    0    0  502    0  0.00000000000E+00  0.00000000000E+00  0.10791516715E+03  0.10791516715E+03  0.00000000000E+00 0.  1.
         13   -1    0    0    0    0 -0.00000000000E+00 -0.00000000000E+00 -0.10000000000E+04  0.10000000000E+04  0.00000000000E+00 0.  1.
    9000005    2    1    2  501    0  0.14356640557E-01 -0.27639735677E-01 -0.89222569022E+03  0.11077709074E+04  0.65657421523E+03 0.  0.
         13    1    3    3    0    0  0.23823768173E+03  0.97738389799E+02 -0.78967015876E+03  0.83059553663E+03  0.00000000000E+00 0.  1.
          3    1    3    3  501    0 -0.23822332509E+03 -0.97766029534E+02 -0.10255553146E+03  0.27717537080E+03  0.00000000000E+00 0.  1.
         21    1    1    2  502  501 -0.14356640557E-01  0.27639735677E-01  0.14085737019E+00  0.14425972013E+00  0.00000000000E+00 0.  1.
<mgrwt>
<rscale>  1 0.65657422E+03</rscale>
<asrwt>0</asrwt>
<pdfrwt beam="1">  1        3 0.39241962E+00 0.65657422E+03</pdfrwt>
<pdfrwt beam="2">0</pdfrwt>
<totfact> 0.64849180E-02</totfact>
</mgrwt>
</event>
<event>
 6    1  0.5744123E-003  0.6480897E+03  0.7818608E-02  0.9810370E-01
          3   -1    0    0  502    0  0.00000000000E+00  0.00000000000E+00  0.10508242715E+03  0.10508242715E+03  0.00000000000E+00 0.  1.
         13   -1    0    0    0    0 -0.00000000000E+00 -0.00000000000E+00 -0.10000000000E+04  0.10000000000E+04  0.00000000000E+00 0.  1.
    9000005    2    1    2  501    0  0.29743199125E-01 -0.51932726190E-01 -0.89498192727E+03  0.11049945457E+04  0.64808972542E+03 0.  0.
         13    1    3    3    0    0 -0.25364117257E+03  0.20030099460E+03 -0.48680814149E+03  0.58432567930E+03  0.00000000000E+00 0.  1.
          3    1    3    3  501    0  0.25367091577E+03 -0.20035292733E+03 -0.40817378578E+03  0.52066886635E+03  0.00000000000E+00 0.  1.
         21    1    1    2  502  501 -0.29743199125E-01  0.51932726190E-01  0.64354416534E-01  0.87881493337E-01  0.00000000000E+00 0.  1.
<mgrwt>
<rscale>  1 0.64808973E+03</rscale>
<asrwt>0</asrwt>
<pdfrwt beam="1">  1        3 0.38211872E+00 0.64808973E+03</pdfrwt>
<pdfrwt beam="2">0</pdfrwt>
<totfact> 0.73582966E-02</totfact>
</mgrwt>
</event>
<event>
 6    1  0.5744123E-003  0.6499532E+03  0.7818608E-02  0.9806867E-01
          1   -1    0    0  502    0  0.00000000000E+00  0.00000000000E+00  0.10566220497E+03  0.10566220497E+03  0.00000000000E+00 0.  1.
         13   -1    0    0    0    0 -0.00000000000E+00 -0.00000000000E+00 -0.10000000000E+04  0.10000000000E+04  0.00000000000E+00 0.  1.
    9000005    2    1    2  501    0 -0.16800313406E-03  0.12317393350E-02 -0.89439021380E+03  0.11056097715E+04  0.64995316155E+03 0.  0.
         13    1    3    3    0    0  0.16802561484E+03  0.21181605368E+03 -0.75391228018E+03  0.80092594792E+03  0.00000000000E+00 0.  1.
          1    1    3    3  501    0 -0.16802578285E+03 -0.21181482194E+03 -0.14047793362E+03  0.30468382355E+03  0.00000000000E+00 0.  1.
         21    1    1    2  502  501  0.16800313405E-03 -0.12317393350E-02  0.52418765374E-01  0.52433504272E-01  0.00000000000E+00 0.  1.
<mgrwt>
<rscale>  1 0.64995316E+03</rscale>
<asrwt>0</asrwt>
<pdfrwt beam="1">  1        1 0.38422701E+00 0.64995316E+03</pdfrwt>
<pdfrwt beam="2">0</pdfrwt>
<totfact> 0.15719344E+00</totfact>
</mgrwt>
</event>
<event>
 6    1  0.5744123E-003  0.6284391E+03  0.7818608E-02  0.9848099E-01
          1   -1    0    0  502    0  0.00000000000E+00  0.00000000000E+00  0.98795723285E+02  0.98795723285E+02  0.00000000000E+00 0.  1.
         13   -1    0    0    0    0 -0.00000000000E+00 -0.00000000000E+00 -0.10000000000E+04  0.10000000000E+04  0.00000000000E+00 0.  1.
    9000005    2    1    2  501    0 -0.66304433841E-02  0.10975782231E-01 -0.90126533215E+03  0.10987333358E+04  0.62843913320E+03 0.  0.
         13    1    3    3    0    0  0.12411276211E+03 -0.28848846140E+03 -0.43310713920E+03  0.53498725602E+03  0.00000000000E+00 0.  1.
          3    1    3    3  501    0 -0.12411939256E+03  0.28849943718E+03 -0.46815819294E+03  0.56374607979E+03  0.00000000000E+00 0.  1.
         21    1    1    2  502  501  0.66304433841E-02 -0.10975782231E-01  0.61055432757E-01  0.62387470250E-01  0.00000000000E+00 0. -1.
<mgrwt>
<rscale>  1 0.62843913E+03</rscale>
<asrwt>0</asrwt>
<pdfrwt beam="1">  1        1 0.35925793E+00 0.62843913E+03</pdfrwt>
<pdfrwt beam="2">0</pdfrwt>
<totfact> 0.20318747E+00</totfact>
</mgrwt>
</event>
<event>
 6    1  0.5744123E-003  0.6489646E+03  0.7818608E-02  0.9808724E-01
          1   -1    0    0  502    0  0.00000000000E+00  0.00000000000E+00  0.10529016248E+03  0.10529016248E+03  0.00000000000E+00 0.  1.
         13   -1    0    0    0    0 -0.00000000000E+00 -0.00000000000E+00 -0.10000000000E+04  0.10000000000E+04  0.00000000000E+00 0.  1.
    9000005    2    1    2  501    0  0.23950496118E-02 -0.19374634191E-02 -0.89470906030E+03  0.11052869854E+04  0.64896457331E+03 0.  0.
         13    1    3    3    0    0  0.39457810800E+01 -0.12423256982E+03 -0.95784621775E+03  0.96587715443E+03  0.00000000000E+00 0.  1.
          3    1    3    3  501    0 -0.39433860304E+01  0.12423063236E+03  0.63137157449E+02  0.13940983093E+03  0.00000000000E+00 0.  1.
         21    1    1    2  502  501 -0.23950496118E-02  0.19374634191E-02 -0.77722275565E-03  0.31771217093E-02  0.00000000000E+00 0.  1.
<mgrwt>
<rscale>  1 0.64896457E+03</rscale>
<asrwt>0</asrwt>
<pdfrwt beam="1">  1        1 0.38287413E+00 0.64896457E+03</pdfrwt>
<pdfrwt beam="2">0</pdfrwt>
<totfact> 0.15940185E+00</totfact>
</mgrwt>
</event>
<event>
 6    1  0.5744123E-003  0.6505714E+03  0.7818608E-02  0.9805708E-01
          1   -1    0    0  502    0  0.00000000000E+00  0.00000000000E+00  0.10591615644E+03  0.10591615644E+03  0.00000000000E+00 0.  1.
         13   -1    0    0    0    0 -0.00000000000E+00 -0.00000000000E+00 -0.10000000000E+04  0.10000000000E+04  0.00000000000E+00 0.  1.
    9000005    2    1    2  501    0  0.17176008792E-01 -0.50643439819E-01 -0.89418167445E+03  0.11058046636E+04  0.65057135215E+03 0.  0.
         13    1    3    3    0    0  0.19522432169E+03 -0.50784956221E+02 -0.13335353555E+02  0.20216201229E+03  0.00000000000E+00 0.  1.
          1    1    3    3  501    0 -0.19520714569E+03  0.50734312781E+02 -0.88084632089E+03  0.90364265130E+03  0.00000000000E+00 0.  1.
         21    1    1    2  502  501 -0.17176008792E-01  0.50643439819E-01  0.97830889960E-01  0.11149285316E+00  0.00000000000E+00 0.  1.
<mgrwt>
<rscale>  1 0.65057135E+03</rscale>
<asrwt>0</asrwt>
<pdfrwt beam="1">  1        1 0.38515047E+00 0.65057135E+03</pdfrwt>
<pdfrwt beam="2">0</pdfrwt>
<totfact> 0.15570438E+00</totfact>
</mgrwt>
</event>
<event>
 6    1  0.5744123E-003  0.6453914E+03  0.7818608E-02  0.9815466E-01
          1   -1    0    0  502    0  0.00000000000E+00  0.00000000000E+00  0.10415113407E+03  0.10415113407E+03  0.00000000000E+00 0.  1.
         13   -1    0    0    0    0 -0.00000000000E+00 -0.00000000000E+00 -0.10000000000E+04  0.10000000000E+04  0.00000000000E+00 0.  1.
    9000005    2    1    2  501    0  0.19026099318E-02  0.22240876127E-02 -0.89586736836E+03  0.11041324016E+04  0.64539136846E+03 0.  0.
         13    1    3    3    0    0 -0.18365733421E+03  0.16957778073E+03 -0.79706126695E+03  0.83534023212E+03  0.00000000000E+00 0.  1.
          1    1    3    3  501    0  0.18365923682E+03 -0.16957555664E+03 -0.98806101412E+02  0.26879216945E+03  0.00000000000E+00 0.  1.
         21    1    1    2  502  501 -0.19026099318E-02 -0.22240876127E-02  0.18502432821E-01  0.18732498781E-01  0.00000000000E+00 0.  1.
<mgrwt>
<rscale>  1 0.64539137E+03</rscale>
<asrwt>0</asrwt>
<pdfrwt beam="1">  1        1 0.37873220E+00 0.64539137E+03</pdfrwt>
<pdfrwt beam="2">0</pdfrwt>
<totfact> 0.16636472E+00</totfact>
</mgrwt>
</event>
<event>
 6    1  0.5744123E-003  0.6535810E+03  0.7818608E-02  0.9800083E-01
          1   -1    0    0  502    0  0.00000000000E+00  0.00000000000E+00  0.10779666227E+03  0.10779666227E+03  0.00000000000E+00 0.  1.
         13   -1    0    0    0    0 -0.00000000000E+00 -0.00000000000E+00 -0.10000000000E+04  0.10000000000E+04  0.00000000000E+00 0.  1.
    9000005    2    1    2  501    0  0.84686511850E+00 -0.11281867990E+00 -0.89300289717E+03  0.11066265324E+04  0.65358042962E+03 0.  0.
         13    1    3    3    0    0  0.68649800418E+01  0.79967450547E+02 -0.98284962152E+03  0.98612134123E+03  0.00000000000E+00 0.  1.
          3    1    3    3  501    0 -0.60181149233E+01 -0.80080269227E+02  0.89846724350E+02  0.12050519119E+03  0.00000000000E+00 0.  1.
         21    1    1    2  502  501 -0.84686511850E+00  0.11281867990E+00  0.79955944002E+00  0.11701298567E+01  0.00000000000E+00 0. -1.
<mgrwt>
<rscale>  1 0.65358099E+03</rscale>
<asrwt>0</asrwt>
<pdfrwt beam="1">  1        1 0.39198869E+00 0.65358099E+03</pdfrwt>
<pdfrwt beam="2">0</pdfrwt>
<totfact> 0.14512979E+00</totfact>
</mgrwt>
</event>
<event>
 6    1  0.5744124E-003  0.6515483E+03  0.7818608E-02  0.9803878E-01
          1   -1    0    0  502    0  0.00000000000E+00  0.00000000000E+00  0.10612879902E+03  0.10612879902E+03  0.00000000000E+00 0.  1.
         13   -1    0    0    0    0 -0.00000000000E+00 -0.00000000000E+00 -0.10000000000E+04  0.10000000000E+04  0.00000000000E+00 0.  1.
    9000005    2    1    2  501    0  0.85430832542E-06  0.33617184272E-05 -0.89387119859E+03  0.11061287948E+04  0.65154830291E+03 0.  0.
         13    1    3    3    0    0  0.23066305949E+03  0.15355290408E+03 -0.73775614289E+03  0.78807871926E+03  0.00000000000E+00 0.  1.
          3    1    3    3  501    0 -0.23066305864E+03 -0.15355290072E+03 -0.15611505569E+03  0.31805007554E+03  0.00000000000E+00 0.  1.
         21    1    1    2  502  501 -0.85430832763E-06 -0.33617184064E-05 -0.23963567362E-05  0.42158651508E-05  0.00000000000E+00 0.  1.
<mgrwt>
<rscale>  1 0.65154830E+03</rscale>
<asrwt>0</asrwt>
<pdfrwt beam="1">  1        1 0.38592372E+00 0.65154830E+03</pdfrwt>
<pdfrwt beam="2">0</pdfrwt>
<totfact> 0.15445474E+00</totfact>
</mgrwt>
</event>
<event>
 6    1  0.5744123E-003  0.6637263E+03  0.7818608E-02  0.9781358E-01
          1   -1    0    0  502    0  0.00000000000E+00  0.00000000000E+00  0.11435424620E+03  0.11435424620E+03  0.00000000000E+00 0.  1.
         13   -1    0    0    0    0 -0.00000000000E+00 -0.00000000000E+00 -0.10000000000E+04  0.10000000000E+04  0.00000000000E+00 0.  1.
    9000005    2    1    2  501    0 -0.93720906072E-01  0.12024003170E+00 -0.88986530788E+03  0.11101319390E+04  0.66372632360E+03 0.  0.
         13    1    3    3    0    0  0.74155924473E+02 -0.30282227399E+03 -0.25495539018E+03  0.40274394066E+03  0.00000000000E+00 0.  1.
          3    1    3    3  501    0 -0.74249645379E+02  0.30294251402E+03 -0.63490991770E+03  0.70738799836E+03  0.00000000000E+00 0.  1.
         21    1    1    2  502  501  0.93720906072E-01 -0.12024003170E+00  0.42195540764E+01  0.42223071746E+01  0.00000000000E+00 0.  1.
<mgrwt>
<rscale>  1 0.66372634E+03</rscale>
<asrwt>0</asrwt>
<pdfrwt beam="1">  1        1 0.41583450E+00 0.66372634E+03</pdfrwt>
<pdfrwt beam="2">0</pdfrwt>
<totfact> 0.11333385E+00</totfact>
</mgrwt>
</event>
<event>
 6    1  0.5744123E-003  0.6386657E+03  0.7818608E-02  0.9828283E-01
          1   -1    0    0  502    0  0.00000000000E+00  0.00000000000E+00  0.10198322096E+03  0.10198322096E+03  0.00000000000E+00 0.  1.
         13   -1    0    0    0    0 -0.00000000000E+00 -0.00000000000E+00 -0.10000000000E+04  0.10000000000E+04  0.00000000000E+00 0.  1.
    9000005    2    1    2  501    0 -0.98072049653E-04  0.17274606375E-03 -0.89802651508E+03  0.11019734829E+04  0.63866574609E+03 0.  0.
         13    1    3    3    0    0  0.75891292746E+02 -0.27234324772E+03 -0.70518641247E+03  0.75974878034E+03  0.00000000000E+00 0.  1.
          3    1    3    3  501    0 -0.75891390818E+02  0.27234342046E+03 -0.19284010261E+03  0.34222470256E+03  0.00000000000E+00 0.  1.
         21    1    1    2  502  501  0.98072049655E-04 -0.17274606375E-03  0.97360408833E-02  0.97380671291E-02  0.00000000000E+00 0. -1.
<mgrwt>
<rscale>  1 0.63866575E+03</rscale>
<asrwt>0</asrwt>
<pdfrwt beam="1">  1        1 0.37084886E+00 0.63866575E+03</pdfrwt>
<pdfrwt beam="2">0</pdfrwt>
<totfact> 0.18042364E+00</totfact>
</mgrwt>
</event>
<event>
 6    1  0.5744123E-003  0.6508519E+03  0.7818608E-02  0.9805182E-01
          1   -1    0    0  502    0  0.00000000000E+00  0.00000000000E+00  0.11149279638E+03  0.11149279638E+03  0.00000000000E+00 0.  1.
         13   -1    0    0    0    0 -0.00000000000E+00 -0.00000000000E+00 -0.10000000000E+04  0.10000000000E+04  0.00000000000E+00 0.  1.
    9000005    2    1    2  501    0  0.48694948012E+01  0.12605970312E+01 -0.89281854000E+03  0.11048679412E+04  0.65083248313E+03 0.  0.
         13    1    3    3    0    0 -0.21551933332E+03 -0.19603054951E+03 -0.20526151602E+03  0.35638300932E+03  0.00000000000E+00 0.  1.
          1    1    3    3  501    0  0.22038882812E+03  0.19729114654E+03 -0.68755702398E+03  0.74848493190E+03  0.00000000000E+00 0.  1.
         21    1    1    2  502  501 -0.48694948012E+01 -0.12605970312E+01  0.43113363796E+01  0.66248551586E+01  0.00000000000E+00 0. -1.
<mgrwt>
<rscale>  1 0.65085192E+03</rscale>
<asrwt>0</asrwt>
<pdfrwt beam="1">  1        1 0.40542921E+00 0.65085192E+03</pdfrwt>
<pdfrwt beam="2">0</pdfrwt>
<totfact> 0.12650511E+00</totfact>
</mgrwt>
</event>
<event>
 6    1  0.5744123E-003  0.6355553E+03  0.7818608E-02  0.9834268E-01
          1   -1    0    0  502    0  0.00000000000E+00  0.00000000000E+00  0.10481690927E+03  0.10481690927E+03  0.00000000000E+00 0.  1.
         13   -1    0    0    0    0 -0.00000000000E+00 -0.00000000000E+00 -0.10000000000E+04  0.10000000000E+04  0.00000000000E+00 0.  1.
    9000005    2    1    2  501    0 -0.81665772835E+01 -0.30903400282E+01 -0.89252864482E+03  0.10956906138E+04  0.63549531559E+03 0.  0.
         13    1    3    3    0    0 -0.11511813959E+03 -0.28989155115E+03 -0.32239168912E+03  0.44858187514E+03  0.00000000000E+00 0.  1.
          3    1    3    3  501    0  0.10695156231E+03  0.28680121112E+03 -0.57013695570E+03  0.64710873865E+03  0.00000000000E+00 0.  1.
         21    1    1    2  502  501  0.81665772835E+01  0.30903400282E+01 -0.26544459115E+01  0.91262954760E+01  0.00000000000E+00 0. -1.
<mgrwt>
<rscale>  1 0.63555530E+03</rscale>
<asrwt>0</asrwt>
<pdfrwt beam="1">  1        1 0.38115320E+00 0.63555530E+03</pdfrwt>
<pdfrwt beam="2">0</pdfrwt>
<totfact> 0.16261970E+00</totfact>
</mgrwt>
</event>
<event>
 6    1  0.5744123E-003  0.6406563E+03  0.7818608E-02  0.9824472E-01
          1   -1    0    0  502    0  0.00000000000E+00  0.00000000000E+00  0.10614396487E+03  0.10614396487E+03  0.00000000000E+00 0.  1.
         13   -1    0    0    0    0 -0.00000000000E+00 -0.00000000000E+00 -0.10000000000E+04  0.10000000000E+04  0.00000000000E+00 0.  1.
    9000005    2    1    2  501    0  0.13184454236E+00 -0.55767770263E-01 -0.89738827662E+03  0.11026088237E+04  0.64065628744E+03 0.  0.
         13    1    3    3    0    0  0.21031949903E+03 -0.22425893633E+03 -0.60390684276E+03  0.67766498871E+03  0.00000000000E+00 0.  1.
          3    1    3    3  501    0 -0.21018765449E+03  0.22420316855E+03 -0.29348143386E+03  0.42494383501E+03  0.00000000000E+00 0.  1.
         21    1    1    2  502  501 -0.13184454236E+00  0.55767770263E-01  0.35322414848E+01  0.35351411478E+01  0.00000000000E+00 0. -1.
<mgrwt>
<rscale>  1 0.64065630E+03</rscale>
<asrwt>0</asrwt>
<pdfrwt beam="1">  1        1 0.38597887E+00 0.64065630E+03</pdfrwt>
<pdfrwt beam="2">0</pdfrwt>
<totfact> 0.15468119E+00</totfact>
</mgrwt>
</event>
<event>
 6    1  0.5744123E-003  0.6542289E+03  0.7818608E-02  0.9798876E-01
          1   -1    0    0  502    0  0.00000000000E+00  0.00000000000E+00  0.10700613584E+03  0.10700613584E+03  0.00000000000E+00 0.  1.
         13   -1    0    0    0    0 -0.00000000000E+00 -0.00000000000E+00 -0.10000000000E+04  0.10000000000E+04  0.00000000000E+00 0.  1.
    9000005    2    1    2  501    0 -0.15402334390E-02  0.17020822344E-02 -0.89299546211E+03  0.11070033389E+04  0.65422893317E+03 0.  0.
         13    1    3    3    0    0  0.15228812065E+03 -0.12354347410E+03 -0.88951239335E+03  0.91087153848E+03  0.00000000000E+00 0.  1.
          1    1    3    3  501    0 -0.15228966088E+03  0.12354517619E+03 -0.34830687582E+01  0.19613180043E+03  0.00000000000E+00 0.  1.
         21    1    1    2  502  501  0.15402334390E-02 -0.17020822344E-02  0.15979482873E-02  0.27969343411E-02  0.00000000000E+00 0.  1.
<mgrwt>
<rscale>  1 0.65422893E+03</rscale>
<asrwt>0</asrwt>
<pdfrwt beam="1">  1        1 0.38911404E+00 0.65422893E+03</pdfrwt>
<pdfrwt beam="2">0</pdfrwt>
<totfact> 0.14943621E+00</totfact>
</mgrwt>
</event>
<event>
 6    1  0.5744123E-003  0.6528439E+03  0.7818608E-02  0.9801457E-01
          1   -1    0    0  502    0  0.00000000000E+00  0.00000000000E+00  0.12248663243E+03  0.12248663243E+03  0.00000000000E+00 0.  1.
         13   -1    0    0    0    0 -0.00000000000E+00 -0.00000000000E+00 -0.10000000000E+04  0.10000000000E+04  0.00000000000E+00 0.  1.
    9000005    2    1    2  501    0 -0.17260378949E+01  0.38773508503E+01 -0.89313539300E+03  0.11062983424E+04  0.65283013033E+03 0.  0.
         13    1    3    3    0    0 -0.16871988953E+03 -0.22322826060E+03 -0.72723511132E+03  0.77920996181E+03  0.00000000000E+00 0.  1.
          3    1    3    3  501    0  0.16699385164E+03  0.22710561145E+03 -0.16590028168E+03  0.32708838056E+03  0.00000000000E+00 0.  1.
         21    1    1    2  502  501  0.17260378949E+01 -0.38773508503E+01  0.15622025428E+02  0.16188290055E+02  0.00000000000E+00 0.  1.
<mgrwt>
<rscale>  1 0.65284393E+03</rscale>
<asrwt>0</asrwt>
<pdfrwt beam="1">  1        1 0.44540688E+00 0.65284393E+03</pdfrwt>
<pdfrwt beam="2">0</pdfrwt>
<totfact> 0.83356779E-01</totfact>
</mgrwt>
</event>
<event>
 6    1  0.5744123E-003  0.6526181E+03  0.7818608E-02  0.9801879E-01
          3   -1    0    0  502    0  0.00000000000E+00  0.00000000000E+00  0.10648163407E+03  0.10648163407E+03  0.00000000000E+00 0.  1.
         13   -1    0    0    0    0 -0.00000000000E+00 -0.00000000000E+00 -0.10000000000E+04  0.10000000000E+04  0.00000000000E+00 0.  1.
    9000005    2    1    2  501    0  0.22331928022E-04 -0.31402355547E-02 -0.89352170090E+03  0.11064770533E+04  0.65261814214E+03 0.  0.
         13    1    3    3    0    0 -0.25245106599E+03 -0.80762004736E+02 -0.76944755149E+03  0.81382035894E+03  0.00000000000E+00 0.  1.
          3    1    3    3  501    0  0.25245108833E+03  0.80758864500E+02 -0.12407414941E+03  0.29265669435E+03  0.00000000000E+00 0.  1.
         21    1    1    2  502  501 -0.22331928030E-04  0.31402355547E-02  0.33349776704E-02  0.45807918656E-02  0.00000000000E+00 0.  1.
<mgrwt>
<rscale>  1 0.65261814E+03</rscale>
<asrwt>0</asrwt>
<pdfrwt beam="1">  1        3 0.38720676E+00 0.65261814E+03</pdfrwt>
<pdfrwt beam="2">0</pdfrwt>
<totfact> 0.69122875E-02</totfact>
</mgrwt>
</event>
<event>
 6    1  0.5744123E-003  0.6535056E+03  0.7818608E-02  0.9800223E-01
          1   -1    0    0  502    0  0.00000000000E+00  0.00000000000E+00  0.10676739724E+03  0.10676739724E+03  0.00000000000E+00 0.  1.
         13   -1    0    0    0    0 -0.00000000000E+00 -0.00000000000E+00 -0.10000000000E+04  0.10000000000E+04  0.00000000000E+00 0.  1.
    9000005    2    1    2  501    0 -0.23919093053E-05  0.18999002691E-05 -0.89323260320E+03  0.11067673942E+04  0.65350560927E+03 0.  0.
         13    1    3    3    0    0 -0.25467351043E+03 -0.10837606035E+03 -0.74075176425E+03  0.79076996884E+03  0.00000000000E+00 0.  1.
          1    1    3    3  501    0  0.25467350804E+03  0.10837606225E+03 -0.15248083894E+03  0.31599742532E+03  0.00000000000E+00 0.  1.
         21    1    1    2  502  501  0.23919093183E-05 -0.18999002779E-05  0.44119184936E-06  0.30863411187E-05  0.00000000000E+00 0.  1.
<mgrwt>
<rscale>  1 0.65350561E+03</rscale>
<asrwt>0</asrwt>
<pdfrwt beam="1">  1        1 0.38824590E+00 0.65350561E+03</pdfrwt>
<pdfrwt beam="2">0</pdfrwt>
<totfact> 0.15078613E+00</totfact>
</mgrwt>
</event>
<event>
 6    1  0.5744123E-003  0.6493288E+03  0.7818608E-02  0.9808039E-01
          1   -1    0    0  502    0  0.00000000000E+00  0.00000000000E+00  0.10916641631E+03  0.10916641631E+03  0.00000000000E+00 0.  1.
         13   -1    0    0    0    0 -0.00000000000E+00 -0.00000000000E+00 -0.10000000000E+04  0.10000000000E+04  0.00000000000E+00 0.  1.
    9000005    2    1    2  501    0 -0.78775400310E+00  0.59386007002E+00 -0.89452136131E+03  0.11053489656E+04  0.64932803474E+03 0.  0.
         13    1    3    3    0    0  0.49695554849E+02 -0.29872738147E+03 -0.24914081187E+03  0.39214645319E+03  0.00000000000E+00 0.  1.
          3    1    3    3  501    0 -0.50483308852E+02  0.29932124154E+03 -0.64538054944E+03  0.71320251241E+03  0.00000000000E+00 0.  1.
         21    1    1    2  502  501  0.78775400310E+00 -0.59386007002E+00  0.36877776207E+01  0.38174507111E+01  0.00000000000E+00 0. -1.
<mgrwt>
<rscale>  1 0.64932878E+03</rscale>
<asrwt>0</asrwt>
<pdfrwt beam="1">  1        1 0.39696962E+00 0.64932878E+03</pdfrwt>
<pdfrwt beam="2">0</pdfrwt>
<totfact> 0.13802767E+00</totfact>
</mgrwt>
</event>
<event>
 6    1  0.5744123E-003  0.6332617E+03  0.7818608E-02  0.9838704E-01
          1   -1    0    0  502    0  0.00000000000E+00  0.00000000000E+00  0.10067959453E+03  0.10067959453E+03  0.00000000000E+00 0.  1.
         13   -1    0    0    0    0 -0.00000000000E+00 -0.00000000000E+00 -0.10000000000E+04  0.10000000000E+04  0.00000000000E+00 0.  1.
    9000005    2    1    2  501    0 -0.16898533436E+00  0.26524469737E+00 -0.89967990611E+03  0.11002019425E+04  0.63326162193E+03 0.  0.
         13    1    3    3    0    0 -0.21589446872E+03  0.10214261406E+03 -0.88565780848E+02  0.25473011751E+03  0.00000000000E+00 0.  1.
          3    1    3    3  501    0  0.21572548339E+03 -0.10187736936E+03 -0.81111412526E+03  0.84547182494E+03  0.00000000000E+00 0.  1.
         21    1    1    2  502  501  0.16898533436E+00 -0.26524469737E+00  0.35950064531E+00  0.47765207703E+00  0.00000000000E+00 0. -1.
<mgrwt>
<rscale>  1 0.63326170E+03</rscale>
<asrwt>0</asrwt>
<pdfrwt beam="1">  1        1 0.36610839E+00 0.63326170E+03</pdfrwt>
<pdfrwt beam="2">0</pdfrwt>
<totfact> 0.18946358E+00</totfact>
</mgrwt>
</event>
<event>
 6    1  0.5744123E-003  0.6289694E+03  0.7818608E-02  0.9847062E-01
          1   -1    0    0  502    0  0.00000000000E+00  0.00000000000E+00  0.99262412298E+02  0.99262412298E+02  0.00000000000E+00 0.  1.
         13   -1    0    0    0    0 -0.00000000000E+00 -0.00000000000E+00 -0.10000000000E+04  0.10000000000E+04  0.00000000000E+00 0.  1.
    9000005    2    1    2  501    0  0.10600957428E-01  0.59909601754E-03 -0.90109930092E+03  0.10989005433E+04  0.62896935836E+03 0.  0.
         13    1    3    3    0    0 -0.16197099866E+02 -0.21044967086E+03 -0.85785824867E+03  0.88344336820E+03  0.00000000000E+00 0.  1.
          1    1    3    3  501    0  0.16207700824E+02  0.21045026995E+03 -0.43241052257E+02  0.21545717507E+03  0.00000000000E+00 0.  1.
         21    1    1    2  502  501 -0.10600957428E-01 -0.59909601753E-03  0.36171322203E+00  0.36186902908E+00  0.00000000000E+00 0. -1.
<mgrwt>
<rscale>  1 0.62896936E+03</rscale>
<asrwt>0</asrwt>
<pdfrwt beam="1">  1        1 0.36095499E+00 0.62896936E+03</pdfrwt>
<pdfrwt beam="2">0</pdfrwt>
<totfact> 0.19972536E+00</totfact>
</mgrwt>
</event>
<event>
 6    1  0.5744123E-003  0.6487893E+03  0.7818608E-02  0.9809054E-01
          1   -1    0    0  502    0  0.00000000000E+00  0.00000000000E+00  0.10523292141E+03  0.10523292141E+03  0.00000000000E+00 0.  1.
         13   -1    0    0    0    0 -0.00000000000E+00 -0.00000000000E+00 -0.10000000000E+04  0.10000000000E+04  0.00000000000E+00 0.  1.
    9000005    2    1    2  501    0  0.21982465398E-04  0.24414112082E-03 -0.89476809223E+03  0.11052318786E+04  0.64878930825E+03 0.  0.
         13    1    3    3    0    0  0.30100275137E+03 -0.11834404860E+03 -0.40483327763E+03  0.51816788095E+03  0.00000000000E+00 0.  1.
          1    1    3    3  501    0 -0.30100272939E+03  0.11834429275E+03 -0.48993481460E+03  0.58706399760E+03  0.00000000000E+00 0.  1.
         21    1    1    2  502  501 -0.21982465428E-04 -0.24414112083E-03  0.10136383488E-02  0.10428570457E-02  0.00000000000E+00 0. -1.
<mgrwt>
<rscale>  1 0.64878931E+03</rscale>
<asrwt>0</asrwt>
<pdfrwt beam="1">  1        1 0.38266598E+00 0.64878931E+03</pdfrwt>
<pdfrwt beam="2">0</pdfrwt>
<totfact> 0.15974492E+00</totfact>
</mgrwt>
</event>
<event>
 6    1  0.5744123E-003  0.6399414E+03  0.7818608E-02  0.9825839E-01
          1   -1    0    0  502    0  0.00000000000E+00  0.00000000000E+00  0.10435622036E+03  0.10435622036E+03  0.00000000000E+00 0.  1.
         13   -1    0    0    0    0 -0.00000000000E+00 -0.00000000000E+00 -0.10000000000E+04  0.10000000000E+04  0.00000000000E+00 0.  1.
    9000005    2    1    2  501    0  0.20507963698E-01  0.27982269965E-01 -0.89761857666E+03  0.11023811186E+04  0.63994141944E+03 0.  0.
         13    1    3    3    0    0 -0.12634465818E+02 -0.31829678655E+03 -0.50045699185E+03  0.59323660941E+03  0.00000000000E+00 0.  1.
          1    1    3    3  501    0  0.12654973782E+02  0.31832476882E+03 -0.39716158481E+03  0.50914450921E+03  0.00000000000E+00 0.  1.
         21    1    1    2  502  501 -0.20507963698E-01 -0.27982269965E-01  0.19747970203E+01  0.19751017329E+01  0.00000000000E+00 0.  1.
<mgrwt>
<rscale>  1 0.63994142E+03</rscale>
<asrwt>0</asrwt>
<pdfrwt beam="1">  1        1 0.37947797E+00 0.63994142E+03</pdfrwt>
<pdfrwt beam="2">0</pdfrwt>
<totfact> 0.16527567E+00</totfact>
</mgrwt>
</event>
<event>
 6    1  0.5744123E-003  0.6498711E+03  0.7818608E-02  0.9807021E-01
          1   -1    0    0  502    0  0.00000000000E+00  0.00000000000E+00  0.10560724181E+03  0.10560724181E+03  0.00000000000E+00 0.  1.
         13   -1    0    0    0    0 -0.00000000000E+00 -0.00000000000E+00 -0.10000000000E+04  0.10000000000E+04  0.00000000000E+00 0.  1.
    9000005    2    1    2  501    0 -0.29008310212E-01 -0.44569711525E-02 -0.89440662139E+03  0.11055747836E+04  0.64987106175E+03 0.  0.
         13    1    3    3    0    0 -0.25457151565E+02 -0.19933032271E+03 -0.88161525796E+03  0.90422680075E+03  0.00000000000E+00 0.  1.
          1    1    3    3  501    0  0.25428143255E+02  0.19932586574E+03 -0.12791363427E+02  0.20134798286E+03  0.00000000000E+00 0.  1.
         21    1    1    2  502  501  0.29008310212E-01  0.44569711525E-02  0.13863201427E-01  0.32458204002E-01  0.00000000000E+00 0.  1.
<mgrwt>
<rscale>  1 0.64987106E+03</rscale>
<asrwt>0</asrwt>
<pdfrwt beam="1">  1        1 0.38402714E+00 0.64987106E+03</pdfrwt>
<pdfrwt beam="2">0</pdfrwt>
<totfact> 0.15751600E+00</totfact>
</mgrwt>
</event>
<event>
 6    1  0.5744123E-003  0.6425993E+03  0.7818608E-02  0.9820766E-01
          1   -1    0    0  502    0  0.00000000000E+00  0.00000000000E+00  0.10323358411E+03  0.10323358411E+03  0.00000000000E+00 0.  1.
         13   -1    0    0    0    0 -0.00000000000E+00 -0.00000000000E+00 -0.10000000000E+04  0.10000000000E+04  0.00000000000E+00 0.  1.
    9000005    2    1    2  501    0  0.26649021751E-03  0.11092241834E-04 -0.89676636943E+03  0.11032333134E+04  0.64259927045E+03 0.  0.
         13    1    3    3    0    0 -0.30333808188E+02 -0.73940829793E+02  0.85895852206E+02  0.11732639795E+03  0.00000000000E+00 0.  1.
          1    1    3    3  501    0  0.30334074678E+02  0.73940840886E+02 -0.98266222164E+03  0.98590691542E+03  0.00000000000E+00 0.  1.
         21    1    1    2  502  501 -0.26649021751E-03 -0.11092241837E-04 -0.46463768140E-04  0.27073779863E-03  0.00000000000E+00 0. -1.
<mgrwt>
<rscale>  1 0.64259927E+03</rscale>
<asrwt>0</asrwt>
<pdfrwt beam="1">  1        1 0.37539564E+00 0.64259927E+03</pdfrwt>
<pdfrwt beam="2">0</pdfrwt>
<totfact> 0.17218070E+00</totfact>
</mgrwt>
</event>
<event>
 6    1  0.5744123E-003  0.6950213E+03  0.7818608E-02  0.9725785E-01
          1   -1    0    0  502    0  0.00000000000E+00  0.00000000000E+00  0.12150539857E+03  0.12150539857E+03  0.00000000000E+00 0.  1.
         13   -1    0    0    0    0 -0.00000000000E+00 -0.00000000000E+00 -0.10000000000E+04  0.10000000000E+04  0.00000000000E+00 0.  1.
    9000005    2    1    2  501    0  0.37733831817E-01  0.28224396013E-02 -0.87923581960E+03  0.11207632152E+04  0.69502126341E+03 0.  0.
         13    1    3    3    0    0 -0.20464257463E+03 -0.25810375654E+03 -0.61814612890E+03  0.70042898938E+03  0.00000000000E+00 0.  1.
          3    1    3    3  501    0  0.20468030846E+03  0.25810657898E+03 -0.26108969070E+03  0.42033422579E+03  0.00000000000E+00 0.  1.
         21    1    1    2  502  501 -0.37733831817E-01 -0.28224396013E-02  0.74121817293E+00  0.74218339251E+00  0.00000000000E+00 0.  1.
<mgrwt>
<rscale>  1 0.69502126E+03</rscale>
<asrwt>0</asrwt>
<pdfrwt beam="1">  1        1 0.44183874E+00 0.69502126E+03</pdfrwt>
<pdfrwt beam="2">0</pdfrwt>
<totfact> 0.85830850E-01</totfact>
</mgrwt>
</event>
<event>
 6    1  0.5744123E-003  0.6685556E+03  0.7818608E-02  0.9772571E-01
          1   -1    0    0  502    0  0.00000000000E+00  0.00000000000E+00  0.11174177813E+03  0.11174177813E+03  0.00000000000E+00 0.  1.
         13   -1    0    0    0    0 -0.00000000000E+00 -0.00000000000E+00 -0.10000000000E+04  0.10000000000E+04  0.00000000000E+00 0.  1.
    9000005    2    1    2  501    0 -0.15781661700E-03 -0.92941418785E-04 -0.88825827462E+03  0.11117415875E+04  0.66855560354E+03 0.  0.
         13    1    3    3    0    0 -0.34608805035E+02  0.16639410778E+03 -0.92279291386E+03  0.93831313023E+03  0.00000000000E+00 0.  1.
          3    1    3    3  501    0  0.34608647218E+02 -0.16639420072E+03  0.34534639245E+02  0.17342845730E+03  0.00000000000E+00 0.  1.
         21    1    1    2  502  501  0.15781661701E-03  0.92941418777E-04  0.52745399538E-04  0.19059451487E-03  0.00000000000E+00 0.  1.
<mgrwt>
<rscale>  1 0.66855560E+03</rscale>
<asrwt>0</asrwt>
<pdfrwt beam="1">  1        1 0.40633460E+00 0.66855560E+03</pdfrwt>
<pdfrwt beam="2">0</pdfrwt>
<totfact> 0.12490992E+00</totfact>
</mgrwt>
</event>
<event>
 6    1  0.5744123E-003  0.6550764E+03  0.7818608E-02  0.9797300E-01
          1   -1    0    0  502    0  0.00000000000E+00  0.00000000000E+00  0.10728661822E+03  0.10728661822E+03  0.00000000000E+00 0.  1.
         13   -1    0    0    0    0 -0.00000000000E+00 -0.00000000000E+00 -0.10000000000E+04  0.10000000000E+04  0.00000000000E+00 0.  1.
    9000005    2    1    2  501    0 -0.10436295124E-01 -0.50152209860E-02 -0.89271057052E+03  0.11072747030E+04  0.65507641165E+03 0.  0.
         13    1    3    3    0    0  0.11911337606E+03  0.25007432097E+03 -0.15089278716E+03  0.31542637110E+03  0.00000000000E+00 0.  1.
          1    1    3    3  501    0 -0.11912381235E+03 -0.25007933620E+03 -0.74181778336E+03  0.79184833192E+03  0.00000000000E+00 0.  1.
         21    1    1    2  502  501  0.10436295124E-01  0.50152209860E-02 -0.28112671376E-02  0.11915197034E-01  0.00000000000E+00 0.  1.
<mgrwt>
<rscale>  1 0.65507641E+03</rscale>
<asrwt>0</asrwt>
<pdfrwt beam="1">  1        1 0.39013398E+00 0.65507641E+03</pdfrwt>
<pdfrwt beam="2">0</pdfrwt>
<totfact> 0.14786498E+00</totfact>
</mgrwt>
</event>
<event>
 6    1  0.5744123E-003  0.6447399E+03  0.7818608E-02  0.9816700E-01
          1   -1    0    0  502    0  0.00000000000E+00  0.00000000000E+00  0.10392285632E+03  0.10392285632E+03  0.00000000000E+00 0.  1.
         13   -1    0    0    0    0 -0.00000000000E+00 -0.00000000000E+00 -0.10000000000E+04  0.10000000000E+04  0.00000000000E+00 0.  1.
    9000005    2    1    2  501    0  0.10056907824E-02 -0.72647722052E-03 -0.89607644535E+03  0.11039214326E+04  0.64473989605E+03 0.  0.
         13    1    3    3    0    0 -0.18353290503E+03  0.18700401746E+03 -0.76958072121E+03  0.81296329328E+03  0.00000000000E+00 0.  1.
          3    1    3    3  501    0  0.18353391072E+03 -0.18700474393E+03 -0.12649572414E+03  0.29095813937E+03  0.00000000000E+00 0.  1.
         21    1    1    2  502  501 -0.10056907825E-02  0.72647722053E-03 -0.69833211220E-03  0.14236751177E-02  0.00000000000E+00 0. -1.
<mgrwt>
<rscale>  1 0.64473990E+03</rscale>
<asrwt>0</asrwt>
<pdfrwt beam="1">  1        1 0.37790209E+00 0.64473990E+03</pdfrwt>
<pdfrwt beam="2">0</pdfrwt>
<totfact> 0.16779260E+00</totfact>
</mgrwt>
</event>
<event>
 6    1  0.5744123E-003  0.6463877E+03  0.7818608E-02  0.9813581E-01
          1   -1    0    0  502    0  0.00000000000E+00  0.00000000000E+00  0.11153262271E+03  0.11153262271E+03  0.00000000000E+00 0.  1.
         13   -1    0    0    0    0 -0.00000000000E+00 -0.00000000000E+00 -0.10000000000E+04  0.10000000000E+04  0.00000000000E+00 0.  1.
    9000005    2    1    2  501    0  0.24818305384E+00 -0.23199005686E+00 -0.89554124071E+03  0.11044506062E+04  0.64638758674E+03 0.  0.
         13    1    3    3    0    0  0.15846941368E+03  0.28013316048E+03 -0.39815287071E+03  0.51196958027E+03  0.00000000000E+00 0.  1.
          1    1    3    3  501    0 -0.15822123063E+03 -0.28036515054E+03 -0.49738837001E+03  0.59248102592E+03  0.00000000000E+00 0.  1.
         21    1    1    2  502  501 -0.24818305384E+00  0.23199005686E+00  0.70738634231E+01  0.70820165167E+01  0.00000000000E+00 0.  1.
<mgrwt>
<rscale>  1 0.64638768E+03</rscale>
<asrwt>0</asrwt>
<pdfrwt beam="1">  1        1 0.40557403E+00 0.64638768E+03</pdfrwt>
<pdfrwt beam="2">0</pdfrwt>
<totfact> 0.12642537E+00</totfact>
</mgrwt>
</event>
<event>
 6    1  0.5744123E-003  0.6637880E+03  0.7818608E-02  0.9781246E-01
          1   -1    0    0  502    0  0.00000000000E+00  0.00000000000E+00  0.11018535283E+03  0.11018535283E+03  0.00000000000E+00 0.  1.
         13   -1    0    0    0    0 -0.00000000000E+00 -0.00000000000E+00 -0.10000000000E+04  0.10000000000E+04  0.00000000000E+00 0.  1.
    9000005    2    1    2  501    0  0.25483956155E-02  0.29817016768E-01 -0.88983834941E+03  0.11101471776E+04  0.66378796845E+03 0.  0.
         13    1    3    3    0    0 -0.54193507642E+02  0.16901116819E+03  0.24121141108E+02  0.17911878934E+03  0.00000000000E+00 0.  1.
          1    1    3    3  501    0  0.54196056038E+02 -0.16898135118E+03 -0.91395949052E+03  0.93102838831E+03  0.00000000000E+00 0.  1.
         21    1    1    2  502  501 -0.25483956155E-02 -0.29817016768E-01  0.23702241988E-01  0.38175189383E-01  0.00000000000E+00 0. -1.
<mgrwt>
<rscale>  1 0.66378797E+03</rscale>
<asrwt>0</asrwt>
<pdfrwt beam="1">  1        1 0.40067486E+00 0.66378797E+03</pdfrwt>
<pdfrwt beam="2">0</pdfrwt>
<totfact> 0.13251824E+00</totfact>
</mgrwt>
</event>
<event>
 6    1  0.5744123E-003  0.6495541E+03  0.7818608E-02  0.9807616E-01
          1   -1    0    0  502    0  0.00000000000E+00  0.00000000000E+00  0.10549210132E+03  0.10549210132E+03  0.00000000000E+00 0.  1.
         13   -1    0    0    0    0 -0.00000000000E+00 -0.00000000000E+00 -0.10000000000E+04  0.10000000000E+04  0.00000000000E+00 0.  1.
    9000005    2    1    2  501    0  0.10949480137E-02  0.14461705856E-02 -0.89451980780E+03  0.11054800548E+04  0.64955405095E+03 0.  0.
         13    1    3    3    0    0 -0.14130529415E+03 -0.26963998609E+03 -0.25465993332E+03  0.39689367580E+03  0.00000000000E+00 0.  1.
          1    1    3    3  501    0  0.14130638910E+03  0.26964143226E+03 -0.63985987448E+03  0.70858637904E+03  0.00000000000E+00 0.  1.
         21    1    1    2  502  501 -0.10949480137E-02 -0.14461705855E-02  0.11909126774E-01  0.12046477536E-01  0.00000000000E+00 0.  1.
<mgrwt>
<rscale>  1 0.64955405E+03</rscale>
<asrwt>0</asrwt>
<pdfrwt beam="1">  1        1 0.38360845E+00 0.64955405E+03</pdfrwt>
<pdfrwt beam="2">0</pdfrwt>
<totfact> 0.15819798E+00</totfact>
</mgrwt>
</event>
<event>
 6    1  0.5744123E-003  0.6500566E+03  0.7818608E-02  0.9806673E-01
          1   -1    0    0  502    0  0.00000000000E+00  0.00000000000E+00  0.10564346871E+03  0.10564346871E+03  0.00000000000E+00 0.  1.
         13   -1    0    0    0    0 -0.00000000000E+00 -0.00000000000E+00 -0.10000000000E+04  0.10000000000E+04  0.00000000000E+00 0.  1.
    9000005    2    1    2  501    0  0.20181614275E-04 -0.21039691944E-05 -0.89435660856E+03  0.11056433888E+04  0.65005658214E+03 0.  0.
         13    1    3    3    0    0 -0.17030897691E+03  0.13573738660E+03 -0.36807786384E+02  0.22087235879E+03  0.00000000000E+00 0.  1.
          1    1    3    3  501    0  0.17030899710E+03 -0.13573738870E+03 -0.85754882217E+03  0.88477103004E+03  0.00000000000E+00 0.  1.
         21    1    1    2  502  501 -0.20181614296E-04  0.21039692122E-05  0.77263291384E-04  0.79883292606E-04  0.00000000000E+00 0.  1.
<mgrwt>
<rscale>  1 0.65005658E+03</rscale>
<asrwt>0</asrwt>
<pdfrwt beam="1">  1        1 0.38415888E+00 0.65005658E+03</pdfrwt>
<pdfrwt beam="2">0</pdfrwt>
<totfact> 0.15729951E+00</totfact>
</mgrwt>
</event>
<event>
 6    1  0.5744123E-003  0.6536417E+03  0.7818608E-02  0.9799970E-01
          1   -1    0    0  502    0  0.00000000000E+00  0.00000000000E+00  0.10681522551E+03  0.10681522551E+03  0.00000000000E+00 0.  1.
         13   -1    0    0    0    0 -0.00000000000E+00 -0.00000000000E+00 -0.10000000000E+04  0.10000000000E+04  0.00000000000E+00 0.  1.
    9000005    2    1    2  501    0 -0.29075864071E-02 -0.76684342707E-02 -0.89318122413E+03  0.11068062888E+04  0.65364169224E+03 0.  0.
         13    1    3    3    0    0 -0.84437683154E+02 -0.23784709358E+03 -0.95005470703E+02  0.26967944253E+03  0.00000000000E+00 0.  1.
          1    1    3    3  501    0  0.84434775568E+02  0.23783942514E+03 -0.79817575342E+03  0.83712684632E+03  0.00000000000E+00 0.  1.
         21    1    1    2  502  501  0.29075864071E-02  0.76684342707E-02 -0.35503603876E-02  0.89366661435E-02  0.00000000000E+00 0.  1.
<mgrwt>
<rscale>  1 0.65364169E+03</rscale>
<asrwt>0</asrwt>
<pdfrwt beam="1">  1        1 0.38841982E+00 0.65364169E+03</pdfrwt>
<pdfrwt beam="2">0</pdfrwt>
<totfact> 0.15051501E+00</totfact>
</mgrwt>
</event>
<event>
 6    1  0.5744123E-003  0.6615598E+03  0.7818608E-02  0.9785327E-01
          1   -1    0    0  502    0  0.00000000000E+00  0.00000000000E+00  0.10944151643E+03  0.10944151643E+03  0.00000000000E+00 0.  1.
         13   -1    0    0    0    0 -0.00000000000E+00 -0.00000000000E+00 -0.10000000000E+04  0.10000000000E+04  0.00000000000E+00 0.  1.
    9000005    2    1    2  501    0 -0.55671478264E-01 -0.55081225668E-01 -0.89043322488E+03  0.11092937904E+04  0.66155980775E+03 0.  0.
         13    1    3    3    0    0 -0.16936897659E+03 -0.10706840664E+03 -0.88659978239E+03  0.90896021259E+03  0.00000000000E+00 0.  1.
          3    1    3    3  501    0  0.16931330511E+03  0.10701332542E+03 -0.38334424944E+01  0.20033357778E+03  0.00000000000E+00 0.  1.
         21    1    1    2  502  501  0.55671478264E-01  0.55081225668E-01 -0.12525868124E+00  0.14772607129E+00  0.00000000000E+00 0. -1.
<mgrwt>
<rscale>  1 0.66155981E+03</rscale>
<asrwt>0</asrwt>
<pdfrwt beam="1">  1        1 0.39796999E+00 0.66155981E+03</pdfrwt>
<pdfrwt beam="2">0</pdfrwt>
<totfact> 0.13630564E+00</totfact>
</mgrwt>
</event>
<event>
 6    1  0.5744123E-003  0.6224982E+03  0.7818608E-02  0.9859798E-01
          1   -1    0    0  502    0  0.00000000000E+00  0.00000000000E+00  0.96899636191E+02  0.96899636191E+02  0.00000000000E+00 0.  1.
         13   -1    0    0    0    0 -0.00000000000E+00 -0.00000000000E+00 -0.10000000000E+04  0.10000000000E+04  0.00000000000E+00 0.  1.
    9000005    2    1    2  501    0  0.16841162077E-01 -0.55321392977E-02 -0.90312028800E+03  0.10968729678E+04  0.62249823501E+03 0.  0.
         13    1    3    3    0    0  0.10757501734E+03  0.28556477174E+03 -0.55955899015E+03  0.63735852287E+03  0.00000000000E+00 0.  1.
          1    1    3    3  501    0 -0.10755817618E+03 -0.28557030388E+03 -0.34356129785E+03  0.45951444494E+03  0.00000000000E+00 0.  1.
         21    1    1    2  502  501 -0.16841162077E-01  0.55321392976E-02  0.19924192853E-01  0.26668385144E-01  0.00000000000E+00 0.  1.
<mgrwt>
<rscale>  1 0.62249824E+03</rscale>
<asrwt>0</asrwt>
<pdfrwt beam="1">  1        1 0.35236306E+00 0.62249824E+03</pdfrwt>
<pdfrwt beam="2">0</pdfrwt>
<totfact> 0.21800544E+00</totfact>
</mgrwt>
</event>
<event>
 6    1  0.5744123E-003  0.6655692E+03  0.7818608E-02  0.9777995E-01
          1   -1    0    0  502    0  0.00000000000E+00  0.00000000000E+00  0.13482889729E+03  0.13482889729E+03  0.00000000000E+00 0.  1.
         13   -1    0    0    0    0 -0.00000000000E+00 -0.00000000000E+00 -0.10000000000E+04  0.10000000000E+04  0.00000000000E+00 0.  1.
    9000005    2    1    2  501    0 -0.79045665956E-01  0.33857191284E+00 -0.88925300923E+03  0.11107444811E+04  0.66556913021E+03 0.  0.
         13    1    3    3    0    0 -0.30044942188E+03 -0.11271175105E+03 -0.59158383584E+03  0.67301205692E+03  0.00000000000E+00 0.  1.
          1    1    3    3  501    0  0.30037037622E+03  0.11305032296E+03 -0.29766917340E+03  0.43773242423E+03  0.00000000000E+00 0.  1.
         21    1    1    2  502  501  0.79045665956E-01 -0.33857191284E+00  0.24081906523E+02  0.24084416143E+02  0.00000000000E+00 0.  1.
<mgrwt>
<rscale>  1 0.66556922E+03</rscale>
<asrwt>0</asrwt>
<pdfrwt beam="1">  1        1 0.49028793E+00 0.66556922E+03</pdfrwt>
<pdfrwt beam="2">0</pdfrwt>
<totfact> 0.51283789E-01</totfact>
</mgrwt>
</event>
<event>
 6    1  0.5744123E-003  0.6453077E+03  0.7818608E-02  0.9815624E-01
          1   -1    0    0  502    0  0.00000000000E+00  0.00000000000E+00  0.10428300390E+03  0.10428300390E+03  0.00000000000E+00 0.  1.
         13   -1    0    0    0    0 -0.00000000000E+00 -0.00000000000E+00 -0.10000000000E+04  0.10000000000E+04  0.00000000000E+00 0.  1.
    9000005    2    1    2  501    0 -0.17119958410E-01  0.82872910231E-02 -0.89589394583E+03  0.11041050349E+04  0.64530765179E+03 0.  0.
         13    1    3    3    0    0  0.18524518610E+03 -0.39475398984E+02 -0.89485410344E+03  0.91467915278E+03  0.00000000000E+00 0.  1.
          1    1    3    3  501    0 -0.18526230606E+03  0.39483686275E+02 -0.10398423976E+01  0.18942588208E+03  0.00000000000E+00 0.  1.
         21    1    1    2  502  501  0.17119958410E-01 -0.82872910231E-02  0.17694972828E+00  0.17796903805E+00  0.00000000000E+00 0.  1.
<mgrwt>
<rscale>  1 0.64530765E+03</rscale>
<asrwt>0</asrwt>
<pdfrwt beam="1">  1        1 0.37921172E+00 0.64530765E+03</pdfrwt>
<pdfrwt beam="2">0</pdfrwt>
<totfact> 0.16555915E+00</totfact>
</mgrwt>
</event>
