<event>
 6    1  0.4482121E-003  0.6451543E+03  0.7818608E-02  0.9815915E-01
          1   -1    0    0  502    0  0.00000000000E+00  0.00000000000E+00  0.10406677907E+03  0.10406677907E+03  0.00000000000E+00 0.  1.
         13   -1    0    0    0    0 -0.00000000000E+00 -0.00000000000E+00 -0.10000000000E+04  0.10000000000E+04  0.00000000000E+00 0.  1.
    9000005    2    1    2  501    0 -0.23150622959E-01  0.66275695816E-02 -0.89592645542E+03  0.11040417661E+04  0.64515425071E+03 0.  0.
         13    1    3    3    0    0 -0.16768100971E+03 -0.26350285822E+03 -0.30992059597E+03  0.44000165126E+03  0.00000000000E+00 0.  1.
          1    1    3    3  501    0  0.16765785909E+03  0.26350948579E+03 -0.58600585945E+03  0.66404011485E+03  0.00000000000E+00 0.  1.
         21    1    1    2  502  501  0.23150622959E-01 -0.66275695815E-02 -0.67655195563E-02  0.25012962176E-01  0.00000000000E+00 0.  1.
<mgrwt>
<rscale>  1 0.64515425E+03</rscale>
<asrwt>0</asrwt>
<pdfrwt beam="1">  1        1 0.37842545E+00 0.64515425E+03</pdfrwt>
<pdfrwt beam="2">0</pdfrwt>
<totfact> 0.16689090E+00</totfact>
</mgrwt>
</event>
<event>
 6    1  0.4482121E-003  0.6457211E+03  0.7818608E-02  0.9814841E-01
          1   -1    0    0  502    0  0.00000000000E+00  0.00000000000E+00  0.10423898644E+03  0.10423898644E+03  0.00000000000E+00 0.  1.
         13   -1    0    0    0    0 -0.00000000000E+00 -0.00000000000E+00 -0.10000000000E+04  0.10000000000E+04  0.00000000000E+00 0.  1.
    9000005    2    1    2  501    0  0.89173970181E-05 -0.34453576745E-04 -0.89576104010E+03  0.11042389420E+04  0.64572114738E+03 0.  0.
         13    1    3    3    0    0 -0.33372672877E+02 -0.32111463286E+03 -0.44230815910E+03  0.54759916941E+03  0.00000000000E+00 0.  1.
          3    1    3    3  501    0  0.33372681794E+02  0.32111459840E+03 -0.45345288100E+03  0.55663977264E+03  0.00000000000E+00 0.  1.
         21    1    1    2  502  501 -0.89173970186E-05  0.34453576748E-04  0.26538161847E-04  0.44394177034E-04  0.00000000000E+00 0.  1.
<mgrwt>
<rscale>  1 0.64572115E+03</rscale>
<asrwt>0</asrwt>
<pdfrwt beam="1">  1        1 0.37905166E+00 0.64572115E+03</pdfrwt>
<pdfrwt beam="2">0</pdfrwt>
<totfact> 0.16581589E+00</totfact>
</mgrwt>
</event>
<event>
 6    1  0.4482121E-003  0.6500493E+03  0.7818608E-02  0.9806687E-01
          1   -1    0    0  502    0  0.00000000000E+00  0.00000000000E+00  0.11332178614E+03  0.11332178614E+03  0.00000000000E+00 0.  1.
         13   -1    0    0    0    0 -0.00000000000E+00 -0.00000000000E+00 -0.10000000000E+04  0.10000000000E+04  0.00000000000E+00 0.  1.
    9000005    2    1    2  501    0  0.47693817928E+00 -0.17107886513E+00 -0.89434972108E+03  0.11056335639E+04  0.65004914994E+03 0.  0.
         13    1    3    3    0    0  0.22048272497E+03 -0.18276823500E+02 -0.85277114342E+03  0.88100243889E+03  0.00000000000E+00 0.  1.
          3    1    3    3  501    0 -0.22000578679E+03  0.18105744635E+02 -0.41578577654E+02  0.22463112502E+03  0.00000000000E+00 0.  1.
         21    1    1    2  502  501 -0.47693817928E+00  0.17107886513E+00  0.76715072137E+01  0.76882222220E+01  0.00000000000E+00 0. -1.
<mgrwt>
<rscale>  1 0.65004935E+03</rscale>
<asrwt>0</asrwt>
<pdfrwt beam="1">  1        1 0.41208009E+00 0.65004935E+03</pdfrwt>
<pdfrwt beam="2">0</pdfrwt>
<totfact> 0.11813634E+00</totfact>
</mgrwt>
</event>
<event>
 6    1  0.4482121E-003  0.6430723E+03  0.7818608E-02  0.9819866E-01
          1   -1    0    0  502    0  0.00000000000E+00  0.00000000000E+00  0.10338639579E+03  0.10338639579E+03  0.00000000000E+00 0.  1.
         13   -1    0    0    0    0 -0.00000000000E+00 -0.00000000000E+00 -0.10000000000E+04  0.10000000000E+04  0.00000000000E+00 0.  1.
    9000005    2    1    2  501    0  0.38240528283E-04  0.34133886487E-04 -0.89661449972E+03  0.11033854988E+04  0.64307231155E+03 0.  0.
         13    1    3    3    0    0 -0.65718615865E+02 -0.22641370454E+03 -0.73164271635E+02  0.24685038529E+03  0.00000000000E+00 0.  1.
          1    1    3    3  501    0  0.65718654106E+02  0.22641373868E+03 -0.82345022809E+03  0.85653511352E+03  0.00000000000E+00 0.  1.
         21    1    1    2  502  501 -0.38240528288E-04 -0.34133886495E-04  0.89550707619E-03  0.89697290021E-03  0.00000000000E+00 0. -1.
<mgrwt>
<rscale>  1 0.64307231E+03</rscale>
<asrwt>0</asrwt>
<pdfrwt beam="1">  1        1 0.37595132E+00 0.64307231E+03</pdfrwt>
<pdfrwt beam="2">0</pdfrwt>
<totfact> 0.17119856E+00</totfact>
</mgrwt>
</event>
<event>
 6    1  0.4482121E-003  0.6480737E+03  0.7818608E-02  0.9810400E-01
          1   -1    0    0  502    0  0.00000000000E+00  0.00000000000E+00  0.12703561562E+03  0.12703561562E+03  0.00000000000E+00 0.  1.
         13   -1    0    0    0    0 -0.00000000000E+00 -0.00000000000E+00 -0.10000000000E+04  0.10000000000E+04  0.00000000000E+00 0.  1.
    9000005    2    1    2  501    0  0.73798184647E+00 -0.44070716497E+00 -0.89499085778E+03  0.11049923770E+04  0.64807312766E+03 0.  0.
         13    1    3    3    0    0  0.16745089807E+03 -0.27614619244E+03 -0.50052607918E+03  0.59567010904E+03  0.00000000000E+00 0.  1.
          1    1    3    3  501    0 -0.16671291622E+03  0.27570548527E+03 -0.39446477860E+03  0.50932226792E+03  0.00000000000E+00 0.  1.
         21    1    1    2  502  501 -0.73798184647E+00  0.44070716497E+00  0.22026473402E+02  0.22043238658E+02  0.00000000000E+00 0.  1.
<mgrwt>
<rscale>  1 0.64807370E+03</rscale>
<asrwt>0</asrwt>
<pdfrwt beam="1">  1        1 0.46194867E+00 0.64807370E+03</pdfrwt>
<pdfrwt beam="2">0</pdfrwt>
<totfact> 0.69981270E-01</totfact>
</mgrwt>
</event>
<event>
 6    1  0.4482121E-003  0.6553698E+03  0.7818608E-02  0.9796755E-01
          1   -1    0    0  502    0  0.00000000000E+00  0.00000000000E+00  0.10739273920E+03  0.10739273920E+03  0.00000000000E+00 0.  1.
         13   -1    0    0    0    0 -0.00000000000E+00 -0.00000000000E+00 -0.10000000000E+04  0.10000000000E+04  0.00000000000E+00 0.  1.
    9000005    2    1    2  501    0 -0.27661067726E-01 -0.14476048386E-01 -0.89260246078E+03  0.11073611523E+04  0.65536979463E+03 0.  0.
         13    1    3    3    0    0 -0.28176196972E+03 -0.16731814605E+03 -0.44896089165E+03  0.55583365480E+03  0.00000000000E+00 0.  1.
          1    1    3    3  501    0  0.28173430865E+03  0.16730367000E+03 -0.44364156913E+03  0.55152749753E+03  0.00000000000E+00 0.  1.
         21    1    1    2  502  501  0.27661067726E-01  0.14476048386E-01 -0.48000161405E-02  0.31586877015E-01  0.00000000000E+00 0. -1.
<mgrwt>
<rscale>  1 0.65536980E+03</rscale>
<asrwt>0</asrwt>
<pdfrwt beam="1">  1        1 0.39051988E+00 0.65536980E+03</pdfrwt>
<pdfrwt beam="2">0</pdfrwt>
<totfact> 0.14727534E+00</totfact>
</mgrwt>
</event>
<event>
 6    1  0.4482121E-003  0.6442214E+03  0.7818608E-02  0.9817683E-01
          1   -1    0    0  502    0  0.00000000000E+00  0.00000000000E+00  0.10606235375E+03  0.10606235375E+03  0.00000000000E+00 0.  1.
         13   -1    0    0    0    0 -0.00000000000E+00 -0.00000000000E+00 -0.10000000000E+04  0.10000000000E+04  0.00000000000E+00 0.  1.
    9000005    2    1    2  501    0  0.13240676641E+01  0.53917542615E+00 -0.89599774483E+03  0.11035547909E+04  0.64421981801E+03 0.  0.
         13    1    3    3    0    0 -0.14684532071E+03 -0.27356134363E+03 -0.30380227716E+03  0.43439058525E+03  0.00000000000E+00 0.  1.
          1    1    3    3  501    0  0.14816938838E+03  0.27410051906E+03 -0.59219546766E+03  0.66916420565E+03  0.00000000000E+00 0.  1.
         21    1    1    2  502  501 -0.13240676641E+01 -0.53917542615E+00  0.20600985764E+01  0.25075628534E+01  0.00000000000E+00 0.  1.
<mgrwt>
<rscale>  1 0.64422140E+03</rscale>
<asrwt>0</asrwt>
<pdfrwt beam="1">  1        1 0.38568210E+00 0.64422140E+03</pdfrwt>
<pdfrwt beam="2">0</pdfrwt>
<totfact> 0.15504609E+00</totfact>
</mgrwt>
</event>
<event>
 6    1  0.4482121E-003  0.6488891E+03  0.7818608E-02  0.9808866E-01
          1   -1    0    0  502    0  0.00000000000E+00  0.00000000000E+00  0.10526430335E+03  0.10526430335E+03  0.00000000000E+00 0.  1.
         13   -1    0    0    0    0 -0.00000000000E+00 -0.00000000000E+00 -0.10000000000E+04  0.10000000000E+04  0.00000000000E+00 0.  1.
    9000005    2    1    2  501    0 -0.14700980401E-04 -0.23011887038E-04 -0.89473571813E+03  0.11052642686E+04  0.64888912624E+03 0.  0.
         13    1    3    3    0    0  0.92421017282E+02 -0.14556033190E+03  0.20765116806E+02  0.17366820300E+03  0.00000000000E+00 0.  1.
          1    1    3    3  501    0 -0.92421031982E+02  0.14556030889E+03 -0.91550083494E+03  0.93159606560E+03  0.00000000000E+00 0.  1.
         21    1    1    2  502  501  0.14700980398E-04  0.23011887048E-04  0.21481694368E-04  0.34743761499E-04  0.00000000000E+00 0.  1.
<mgrwt>
<rscale>  1 0.64888913E+03</rscale>
<asrwt>0</asrwt>
<pdfrwt beam="1">  1        1 0.38278009E+00 0.64888913E+03</pdfrwt>
<pdfrwt beam="2">0</pdfrwt>
<totfact> 0.15955664E+00</totfact>
</mgrwt>
</event>
<event>
 6    1  0.4482121E-003  0.6481488E+03  0.7818608E-02  0.9810259E-01
          3   -1    0    0  502    0  0.00000000000E+00  0.00000000000E+00  0.10502423689E+03  0.10502423689E+03  0.00000000000E+00 0.  1.
         13   -1    0    0    0    0 -0.00000000000E+00 -0.00000000000E+00 -0.10000000000E+04  0.10000000000E+04  0.00000000000E+00 0.  1.
    9000005    2    1    2  501    0  0.46573647694E-05 -0.10742230501E-04 -0.89497576675E+03  0.11050242246E+04  0.64814883627E+03 0.  0.
         13    1    3    3    0    0 -0.20180152372E+03 -0.65128999542E+02 -0.86530344059E+03  0.89090722629E+03  0.00000000000E+00 0.  1.
          3    1    3    3  501    0  0.20180152838E+03  0.65128988800E+02 -0.29672326156E+02  0.21411699834E+03  0.00000000000E+00 0.  1.
         21    1    1    2  502  501 -0.46573647685E-05  0.10742230500E-04  0.36385719460E-05  0.12260740944E-04  0.00000000000E+00 0.  1.
<mgrwt>
<rscale>  1 0.64814884E+03</rscale>
<asrwt>0</asrwt>
<pdfrwt beam="1">  1        3 0.38190712E+00 0.64814884E+03</pdfrwt>
<pdfrwt beam="2">0</pdfrwt>
<totfact> 0.73771721E-02</totfact>
</mgrwt>
</event>
<event>
 6    1  0.4482121E-003  0.6432345E+03  0.7818608E-02  0.9819558E-01
          1   -1    0    0  502    0  0.00000000000E+00  0.00000000000E+00  0.10343795667E+03  0.10343795667E+03  0.00000000000E+00 0.  1.
         13   -1    0    0    0    0 -0.00000000000E+00 -0.00000000000E+00 -0.10000000000E+04  0.10000000000E+04  0.00000000000E+00 0.  1.
    9000005    2    1    2  501    0  0.31399763540E-03 -0.64055839892E-03 -0.89656179642E+03  0.11034372018E+04  0.64323448559E+03 0.  0.
         13    1    3    3    0    0  0.24469668374E+03 -0.56124824665E+02 -0.79313073434E+03  0.83191515477E+03  0.00000000000E+00 0.  1.
          1    1    3    3  501    0 -0.24469636974E+03  0.56124184107E+02 -0.10343106208E+03  0.27152204701E+03  0.00000000000E+00 0.  1.
         21    1    1    2  502  501 -0.31399763540E-03  0.64055839892E-03 -0.24690395777E-03  0.75489810029E-03  0.00000000000E+00 0. -1.
<mgrwt>
<rscale>  1 0.64323449E+03</rscale>
<asrwt>0</asrwt>
<pdfrwt beam="1">  1        1 0.37613882E+00 0.64323449E+03</pdfrwt>
<pdfrwt beam="2">0</pdfrwt>
<totfact> 0.17086830E+00</totfact>
</mgrwt>
</event>
<event>
 6    1  0.4482121E-003  0.6156534E+03  0.7818608E-02  0.9873452E-01
          1   -1    0    0  502    0  0.00000000000E+00  0.00000000000E+00  0.94757624578E+02  0.94757624578E+02  0.00000000000E+00 0.  1.
         13   -1    0    0    0    0 -0.00000000000E+00 -0.00000000000E+00 -0.10000000000E+04  0.10000000000E+04  0.00000000000E+00 0.  1.
    9000005    2    1    2  501    0 -0.22908805230E-03 -0.17325280750E-03 -0.90524264516E+03  0.10947572306E+04  0.61565343111E+03 0.  0.
         13    1    3    3    0    0 -0.59147620314E+02 -0.11083767725E+03  0.47094625073E+02  0.13416905529E+03  0.00000000000E+00 0.  1.
          1    1    3    3  501    0  0.59147391226E+02  0.11083750400E+03 -0.95233727023E+03  0.96058817526E+03  0.00000000000E+00 0.  1.
         21    1    1    2  502  501  0.22908805230E-03  0.17325280750E-03  0.26973616079E-03  0.39402470411E-03  0.00000000000E+00 0.  1.
<mgrwt>
<rscale>  1 0.61565343E+03</rscale>
<asrwt>0</asrwt>
<pdfrwt beam="1">  1        1 0.34457391E+00 0.61565343E+03</pdfrwt>
<pdfrwt beam="2">0</pdfrwt>
<totfact> 0.23600476E+00</totfact>
</mgrwt>
</event>
<event>
 6    1  0.4482121E-003  0.6539992E+03  0.7818608E-02  0.9799304E-01
          1   -1    0    0  502    0  0.00000000000E+00  0.00000000000E+00  0.10775809565E+03  0.10775809565E+03  0.00000000000E+00 0.  1.
         13   -1    0    0    0    0 -0.00000000000E+00 -0.00000000000E+00 -0.10000000000E+04  0.10000000000E+04  0.00000000000E+00 0.  1.
    9000005    2    1    2  501    0 -0.12483416802E-01 -0.30610731106E-03 -0.89307122174E+03  0.11069286843E+04  0.65399916268E+03 0.  0.
         13    1    3    3    0    0 -0.30248690599E+03  0.45447427255E+01 -0.23641094041E+03  0.38393894792E+03  0.00000000000E+00 0.  1.
          3    1    3    3  501    0  0.30247442257E+03 -0.45450488328E+01 -0.65666028133E+03  0.72298973634E+03  0.00000000000E+00 0.  1.
         21    1    1    2  502  501  0.12483416802E-01  0.30610731106E-03  0.82931738423E+00  0.82941138959E+00  0.00000000000E+00 0. -1.
<mgrwt>
<rscale>  1 0.65399916E+03</rscale>
<asrwt>0</asrwt>
<pdfrwt beam="1">  1        1 0.39184845E+00 0.65399916E+03</pdfrwt>
<pdfrwt beam="2">0</pdfrwt>
<totfact> 0.14532664E+00</totfact>
</mgrwt>
</event>
<event>
 6    1  0.4482121E-003  0.6419821E+03  0.7818608E-02  0.9821942E-01
          1   -1    0    0  502    0  0.00000000000E+00  0.00000000000E+00  0.10308340827E+03  0.10308340827E+03  0.00000000000E+00 0.  1.
         13   -1    0    0    0    0 -0.00000000000E+00 -0.00000000000E+00 -0.10000000000E+04  0.10000000000E+04  0.00000000000E+00 0.  1.
    9000005    2    1    2  501    0 -0.11151244248E-01  0.20880807758E-01 -0.89696152139E+03  0.11030326241E+04  0.64198208573E+03 0.  0.
         13    1    3    3    0    0  0.98441728092E+02 -0.29927368653E+03 -0.55399422966E+03  0.63731085020E+03  0.00000000000E+00 0.  1.
          3    1    3    3  501    0 -0.98452879337E+02  0.29929456734E+03 -0.34296729172E+03  0.46572177389E+03  0.00000000000E+00 0.  1.
         21    1    1    2  502  501  0.11151244248E-01 -0.20880807758E-01  0.44929655522E-01  0.50784173974E-01  0.00000000000E+00 0.  1.
<mgrwt>
<rscale>  1 0.64198209E+03</rscale>
<asrwt>0</asrwt>
<pdfrwt beam="1">  1        1 0.37484955E+00 0.64198209E+03</pdfrwt>
<pdfrwt beam="2">0</pdfrwt>
<totfact> 0.17315597E+00</totfact>
</mgrwt>
</event>
<event>
 6    1  0.4482121E-003  0.6483507E+03  0.7818608E-02  0.9809879E-01
          1   -1    0    0  502    0  0.00000000000E+00  0.00000000000E+00  0.10673037950E+03  0.10673037950E+03  0.00000000000E+00 0.  1.
         13   -1    0    0    0    0 -0.00000000000E+00 -0.00000000000E+00 -0.10000000000E+04  0.10000000000E+04  0.00000000000E+00 0.  1.
    9000005    2    1    2  501    0 -0.39161811776E+00 -0.12579369276E+01 -0.89461294405E+03  0.11048488141E+04  0.64834932457E+03 0.  0.
         13    1    3    3    0    0  0.95701741339E+02 -0.21029615491E+03 -0.59446902594E+02  0.23857332268E+03  0.00000000000E+00 0.  1.
          3    1    3    3  501    0 -0.96093359457E+02  0.20903821798E+03 -0.83516604145E+03  0.86627549146E+03  0.00000000000E+00 0.  1.
         21    1    1    2  502  501  0.39161811776E+00  0.12579369276E+01  0.13433235428E+01  0.18815653602E+01  0.00000000000E+00 0. -1.
<mgrwt>
<rscale>  1 0.64835066E+03</rscale>
<asrwt>0</asrwt>
<pdfrwt beam="1">  1        1 0.38811129E+00 0.64835066E+03</pdfrwt>
<pdfrwt beam="2">0</pdfrwt>
<totfact> 0.15113793E+00</totfact>
</mgrwt>
</event>
<event>
 6    1  0.4482121E-003  0.6581905E+03  0.7818608E-02  0.9791530E-01
          1   -1    0    0  502    0  0.00000000000E+00  0.00000000000E+00  0.10831430616E+03  0.10831430616E+03  0.00000000000E+00 0.  1.
         13   -1    0    0    0    0 -0.00000000000E+00 -0.00000000000E+00 -0.10000000000E+04  0.10000000000E+04  0.00000000000E+00 0.  1.
    9000005    2    1    2  501    0  0.23047539536E-02 -0.18161149842E-02 -0.89169607540E+03  0.11083035179E+04  0.65819054754E+03 0.  0.
         13    1    3    3    0    0  0.89177128008E+02 -0.68020985769E+02 -0.96682611233E+03  0.97330989214E+03  0.00000000000E+00 0.  1.
          1    1    3    3  501    0 -0.89174823254E+02  0.68019169654E+02  0.75130036929E+02  0.13499362574E+03  0.00000000000E+00 0.  1.
         21    1    1    2  502  501 -0.23047539536E-02  0.18161149842E-02  0.10381558131E-01  0.10788276676E-01  0.00000000000E+00 0.  1.
<mgrwt>
<rscale>  1 0.65819055E+03</rscale>
<asrwt>0</asrwt>
<pdfrwt beam="1">  1        1 0.39387103E+00 0.65819055E+03</pdfrwt>
<pdfrwt beam="2">0</pdfrwt>
<totfact> 0.14224049E+00</totfact>
</mgrwt>
</event>
<event>
 6    1  0.4482121E-003  0.6561443E+03  0.7818608E-02  0.9795318E-01
          1   -1    0    0  502    0  0.00000000000E+00  0.00000000000E+00  0.10763136740E+03  0.10763136740E+03  0.00000000000E+00 0.  1.
         13   -1    0    0    0    0 -0.00000000000E+00 -0.00000000000E+00 -0.10000000000E+04  0.10000000000E+04  0.00000000000E+00 0.  1.
    9000005    2    1    2  501    0  0.45279431902E-05 -0.69986702158E-05 -0.89236865198E+03  0.11076313463E+04  0.65614433493E+03 0.  0.
         13    1    3    3    0    0  0.28352811840E+03  0.43981729544E+02 -0.17763052819E+03  0.33745398353E+03  0.00000000000E+00 0.  1.
          1    1    3    3  501    0 -0.28352811387E+03 -0.43981736543E+02 -0.71473812380E+03  0.77017736277E+03  0.00000000000E+00 0.  1.
         21    1    1    2  502  501 -0.45279431970E-05  0.69986702158E-05  0.19389940678E-04  0.21105768261E-04  0.00000000000E+00 0. -1.
<mgrwt>
<rscale>  1 0.65614433E+03</rscale>
<asrwt>0</asrwt>
<pdfrwt beam="1">  1        1 0.39138762E+00 0.65614433E+03</pdfrwt>
<pdfrwt beam="2">0</pdfrwt>
<totfact> 0.14595447E+00</totfact>
</mgrwt>
</event>
<event>
 6    1  0.4482121E-003  0.6374434E+03  0.7818608E-02  0.9830630E-01
          1   -1    0    0  502    0  0.00000000000E+00  0.00000000000E+00  0.10158367266E+03  0.10158367266E+03  0.00000000000E+00 0.  1.
         13   -1    0    0    0    0 -0.00000000000E+00 -0.00000000000E+00 -0.10000000000E+04  0.10000000000E+04  0.00000000000E+00 0.  1.
    9000005    2    1    2  501    0  0.10421318954E-03 -0.77715821590E-04 -0.89841643053E+03  0.11015835067E+04  0.63744344028E+03 0.  0.
         13    1    3    3    0    0  0.68304251416E+02  0.25614064556E+03 -0.75499408159E+03  0.80018095722E+03  0.00000000000E+00 0.  1.
          1    1    3    3  501    0 -0.68304147203E+02 -0.25614072328E+03 -0.14342234894E+03  0.30140254946E+03  0.00000000000E+00 0.  1.
         21    1    1    2  502  501 -0.10421318954E-03  0.77715821573E-04  0.10318528551E-03  0.16597391645E-03  0.00000000000E+00 0. -1.
<mgrwt>
<rscale>  1 0.63744344E+03</rscale>
<asrwt>0</asrwt>
<pdfrwt beam="1">  1        1 0.36939595E+00 0.63744344E+03</pdfrwt>
<pdfrwt beam="2">0</pdfrwt>
<totfact> 0.18313503E+00</totfact>
</mgrwt>
</event>
<event>
 6    1  0.4482121E-003  0.6168472E+03  0.7818608E-02  0.9871057E-01
          1   -1    0    0  502    0  0.00000000000E+00  0.00000000000E+00  0.95127596674E+02  0.95127596674E+02  0.00000000000E+00 0.  1.
         13   -1    0    0    0    0 -0.00000000000E+00 -0.00000000000E+00 -0.10000000000E+04  0.10000000000E+04  0.00000000000E+00 0.  1.
    9000005    2    1    2  501    0 -0.41506270399E-02 -0.44215452560E-02 -0.90486993130E+03  0.10951210477E+04  0.61684723926E+03 0.  0.
         13    1    3    3    0    0 -0.14757357802E+03  0.75196097397E+02  0.94733063282E+01  0.16589803352E+03  0.00000000000E+00 0.  1.
          3    1    3    3  501    0  0.14756942739E+03 -0.75200518942E+02 -0.91434323762E+03  0.92922301421E+03  0.00000000000E+00 0.  1.
         21    1    1    2  502  501  0.41506270399E-02  0.44215452560E-02 -0.24720301407E-02  0.65489465024E-02  0.00000000000E+00 0.  1.
<mgrwt>
<rscale>  1 0.61684724E+03</rscale>
<asrwt>0</asrwt>
<pdfrwt beam="1">  1        1 0.34591926E+00 0.61684724E+03</pdfrwt>
<pdfrwt beam="2">0</pdfrwt>
<totfact> 0.23279605E+00</totfact>
</mgrwt>
</event>
<event>
 6    1  0.4482121E-003  0.5995504E+03  0.7818608E-02  0.9906339E-01
          1   -1    0    0  502    0  0.00000000000E+00  0.00000000000E+00  0.92303915781E+02  0.92303915781E+02  0.00000000000E+00 0.  1.
         13   -1    0    0    0    0 -0.00000000000E+00 -0.00000000000E+00 -0.10000000000E+04  0.10000000000E+04  0.00000000000E+00 0.  1.
    9000005    2    1    2  501    0  0.34843590454E+00 -0.48791031431E+00 -0.91009462908E+03  0.10898315725E+04  0.59955005044E+03 0.  0.
         13    1    3    3    0    0  0.18925571129E+03 -0.23187366962E+03 -0.41647073803E+03  0.51286547803E+03  0.00000000000E+00 0.  1.
          3    1    3    3  501    0 -0.18890727538E+03  0.23138575931E+03 -0.49362389105E+03  0.57696609443E+03  0.00000000000E+00 0.  1.
         21    1    1    2  502  501 -0.34843590454E+00  0.48791031431E+00  0.23985448609E+01  0.24723433225E+01  0.00000000000E+00 0. -1.
<mgrwt>
<rscale>  1 0.59955035E+03</rscale>
<asrwt>0</asrwt>
<pdfrwt beam="1">  1        1 0.33565131E+00 0.59955035E+03</pdfrwt>
<pdfrwt beam="2">0</pdfrwt>
<totfact> 0.25877196E+00</totfact>
</mgrwt>
</event>
<event>
 6    1  0.4482121E-003  0.6432431E+03  0.7818608E-02  0.9819541E-01
          1   -1    0    0  502    0  0.00000000000E+00  0.00000000000E+00  0.10451979778E+03  0.10451979778E+03  0.00000000000E+00 0.  1.
         13   -1    0    0    0    0 -0.00000000000E+00 -0.00000000000E+00 -0.10000000000E+04  0.10000000000E+04  0.00000000000E+00 0.  1.
    9000005    2    1    2  501    0  0.43121814260E+00  0.82832212893E+00 -0.89633221882E+03  0.11032556780E+04  0.64324239008E+03 0.  0.
         13    1    3    3    0    0 -0.30890440322E+03  0.48892636871E+02 -0.32036313832E+03  0.44771080025E+03  0.00000000000E+00 0.  1.
          1    1    3    3  501    0  0.30933562136E+03 -0.48064314743E+02 -0.57596908050E+03  0.65554487771E+03  0.00000000000E+00 0.  1.
         21    1    1    2  502  501 -0.43121814260E+00 -0.82832212893E+00  0.85201659879E+00  0.12641198204E+01  0.00000000000E+00 0.  1.
<mgrwt>
<rscale>  1 0.64324307E+03</rscale>
<asrwt>0</asrwt>
<pdfrwt beam="1">  1        1 0.38007279E+00 0.64324307E+03</pdfrwt>
<pdfrwt beam="2">0</pdfrwt>
<totfact> 0.16417990E+00</totfact>
</mgrwt>
</event>
<event>
 6    1  0.4482121E-003  0.6663340E+03  0.7818608E-02  0.9776603E-01
          1   -1    0    0  502    0  0.00000000000E+00  0.00000000000E+00  0.11100085982E+03  0.11100085982E+03  0.00000000000E+00 0.  1.
         13   -1    0    0    0    0 -0.00000000000E+00 -0.00000000000E+00 -0.10000000000E+04  0.10000000000E+04  0.00000000000E+00 0.  1.
    9000005    2    1    2  501    0  0.31609264983E-03 -0.37842459889E-03 -0.88899962485E+03  0.11110001684E+04  0.66633403131E+03 0.  0.
         13    1    3    3    0    0 -0.85727440386E+02  0.88562667391E+02 -0.96058589088E+03  0.96846156033E+03  0.00000000000E+00 0.  1.
          1    1    3    3  501    0  0.85727756478E+02 -0.88563045815E+02  0.71586266031E+02  0.14253860810E+03  0.00000000000E+00 0.  1.
         21    1    1    2  502  501 -0.31609264982E-03  0.37842459889E-03  0.48466965903E-03  0.69139309998E-03  0.00000000000E+00 0.  1.
<mgrwt>
<rscale>  1 0.66633403E+03</rscale>
<asrwt>0</asrwt>
<pdfrwt beam="1">  1        1 0.40364034E+00 0.66633403E+03</pdfrwt>
<pdfrwt beam="2">0</pdfrwt>
<totfact> 0.12847772E+00</totfact>
</mgrwt>
</event>
<event>
 6    1  0.4482121E-003  0.6692422E+03  0.7818608E-02  0.9771328E-01
          3   -1    0    0  502    0  0.00000000000E+00  0.00000000000E+00  0.11197126833E+03  0.11197126833E+03  0.00000000000E+00 0.  1.
         13   -1    0    0    0    0 -0.00000000000E+00 -0.00000000000E+00 -0.10000000000E+04  0.10000000000E+04  0.00000000000E+00 0.  1.
    9000005    2    1    2  501    0 -0.41382765517E-05 -0.93328037565E-06 -0.88802873146E+03  0.11119712641E+04  0.66924215666E+03 0.  0.
         13    1    3    3    0    0 -0.18400870674E+03 -0.25664915845E+03 -0.62786241852E+03  0.70280808993E+03  0.00000000000E+00 0.  1.
          1    1    3    3  501    0  0.18400870261E+03  0.25664915752E+03 -0.26016631294E+03  0.40916317415E+03  0.00000000000E+00 0.  1.
         21    1    1    2  502  501  0.41382765635E-05  0.93328037986E-06 -0.20810604174E-06  0.42473113034E-05  0.00000000000E+00 0. -1.
<mgrwt>
<rscale>  1 0.66924216E+03</rscale>
<asrwt>0</asrwt>
<pdfrwt beam="1">  1        3 0.40716911E+00 0.66924216E+03</pdfrwt>
<pdfrwt beam="2">0</pdfrwt>
<totfact> 0.54160333E-02</totfact>
</mgrwt>
</event>
<event>
 6    1  0.4482121E-003  0.6480669E+03  0.7818608E-02  0.9810413E-01
          1   -1    0    0  502    0  0.00000000000E+00  0.00000000000E+00  0.10504639462E+03  0.10504639462E+03  0.00000000000E+00 0.  1.
         13   -1    0    0    0    0 -0.00000000000E+00 -0.00000000000E+00 -0.10000000000E+04  0.10000000000E+04  0.00000000000E+00 0.  1.
    9000005    2    1    2  501    0 -0.27216193192E-01 -0.36600693787E-01 -0.89499023994E+03  0.11049878931E+04  0.64806690420E+03 0.  0.
         13    1    3    3    0    0  0.22933318499E+03  0.22303966997E+03 -0.35980966419E+03  0.48145965414E+03  0.00000000000E+00 0.  1.
          3    1    3    3  501    0 -0.22936040119E+03 -0.22307627067E+03 -0.53518057575E+03  0.62352823900E+03  0.00000000000E+00 0.  1.
         21    1    1    2  502  501  0.27216193192E-01  0.36600693787E-01  0.36634562336E-01  0.58501479598E-01  0.00000000000E+00 0.  1.
<mgrwt>
<rscale>  1 0.64806691E+03</rscale>
<asrwt>0</asrwt>
<pdfrwt beam="1">  1        1 0.38198770E+00 0.64806691E+03</pdfrwt>
<pdfrwt beam="2">0</pdfrwt>
<totfact> 0.16087220E+00</totfact>
</mgrwt>
</event>
<event>
 6    1  0.4482121E-003  0.6592234E+03  0.7818608E-02  0.9789624E-01
          1   -1    0    0  502    0  0.00000000000E+00  0.00000000000E+00  0.10864692441E+03  0.10864692441E+03  0.00000000000E+00 0.  1.
         13   -1    0    0    0    0 -0.00000000000E+00 -0.00000000000E+00 -0.10000000000E+04  0.10000000000E+04  0.00000000000E+00 0.  1.
    9000005    2    1    2  501    0  0.27340148335E-04 -0.39734805107E-04 -0.89135611293E+03  0.11086438867E+04  0.65922344273E+03 0.  0.
         13    1    3    3    0    0 -0.22028084379E+03 -0.39500117134E+02 -0.85264566843E+03  0.88152625899E+03  0.00000000000E+00 0.  1.
          1    1    3    3  501    0  0.22028087113E+03  0.39500077399E+02 -0.38710444494E+02  0.22711762770E+03  0.00000000000E+00 0.  1.
         21    1    1    2  502  501 -0.27340148331E-04  0.39734805111E-04  0.30373348720E-02  0.30377178050E-02  0.00000000000E+00 0. -1.
<mgrwt>
<rscale>  1 0.65922344E+03</rscale>
<asrwt>0</asrwt>
<pdfrwt beam="1">  1        1 0.39508056E+00 0.65922344E+03</pdfrwt>
<pdfrwt beam="2">0</pdfrwt>
<totfact> 0.14046326E+00</totfact>
</mgrwt>
</event>
<event>
 6    1  0.4482121E-003  0.6530440E+03  0.7818608E-02  0.9801084E-01
          1   -1    0    0  502    0  0.00000000000E+00  0.00000000000E+00  0.10661682835E+03  0.10661682835E+03  0.00000000000E+00 0.  1.
         13   -1    0    0    0    0 -0.00000000000E+00 -0.00000000000E+00 -0.10000000000E+04  0.10000000000E+04  0.00000000000E+00 0.  1.
    9000005    2    1    2  501    0  0.30536974407E-05 -0.47953329300E-04 -0.89338337181E+03  0.11066166225E+04  0.65304402622E+03 0.  0.
         13    1    3    3    0    0 -0.25479886403E+03  0.16531228891E+03 -0.24358569477E+03  0.38933867605E+03  0.00000000000E+00 0.  1.
          3    1    3    3  501    0  0.25479886708E+03 -0.16531233687E+03 -0.64979767704E+03  0.71727794645E+03  0.00000000000E+00 0.  1.
         21    1    1    2  502  501 -0.30536974345E-05  0.47953329300E-04  0.20015624771E-03  0.20584307216E-03  0.00000000000E+00 0.  1.
<mgrwt>
<rscale>  1 0.65304403E+03</rscale>
<asrwt>0</asrwt>
<pdfrwt beam="1">  1        1 0.38769838E+00 0.65304403E+03</pdfrwt>
<pdfrwt beam="2">0</pdfrwt>
<totfact> 0.15164359E+00</totfact>
</mgrwt>
</event>
<event>
 6    1  0.4482121E-003  0.5803949E+03  0.7818608E-02  0.9946936E-01
          1   -1    0    0  502    0  0.00000000000E+00  0.00000000000E+00  0.84284093851E+02  0.84284093851E+02  0.00000000000E+00 0.  1.
         13   -1    0    0    0    0 -0.00000000000E+00 -0.00000000000E+00 -0.10000000000E+04  0.10000000000E+04  0.00000000000E+00 0.  1.
    9000005    2    1    2  501    0 -0.14235702160E+00 -0.95441637032E-01 -0.91502583385E+03  0.10835730563E+04  0.58039491929E+03 0.  0.
         13    1    3    3    0    0  0.11456777084E+03 -0.18326496311E+03 -0.81906986346E+03  0.84710522490E+03  0.00000000000E+00 0.  1.
          3    1    3    3  501    0 -0.11471012786E+03  0.18316952147E+03 -0.95955970386E+02  0.23646783139E+03  0.00000000000E+00 0.  1.
         21    1    1    2  502  501  0.14235702160E+00  0.95441637032E-01 -0.69007230213E+00  0.71103755868E+00  0.00000000000E+00 0. -1.
<mgrwt>
<rscale>  1 0.58039494E+03</rscale>
<asrwt>0</asrwt>
<pdfrwt beam="1">  1        1 0.30648826E+00 0.58039494E+03</pdfrwt>
<pdfrwt beam="2">0</pdfrwt>
<totfact> 0.34715440E+00</totfact>
</mgrwt>
</event>
<event>
 6    1  0.4482121E-003  0.5388720E+03  0.7818608E-02  0.1004103E+00
          1   -1    0    0  502    0  0.00000000000E+00  0.00000000000E+00  0.72602259698E+02  0.72602259698E+02  0.00000000000E+00 0.  1.
         13   -1    0    0    0    0 -0.00000000000E+00 -0.00000000000E+00 -0.10000000000E+04  0.10000000000E+04  0.00000000000E+00 0.  1.
    9000005    2    1    2  501    0 -0.71578631088E-03  0.33534263872E-02 -0.92740375399E+03  0.10725953371E+04  0.53887200173E+03 0.  0.
         13    1    3    3    0    0 -0.12662891706E+03 -0.14197086483E+03 -0.84347828931E+03  0.86466538825E+03  0.00000000000E+00 0.  1.
          3    1    3    3  501    0  0.12662820128E+03  0.14197421826E+03 -0.83925464687E+02  0.20792994886E+03  0.00000000000E+00 0.  1.
         21    1    1    2  502  501  0.71578631087E-03 -0.33534263872E-02  0.60136918940E-02  0.69225940783E-02  0.00000000000E+00 0.  1.
<mgrwt>
<rscale>  1 0.53887200E+03</rscale>
<asrwt>0</asrwt>
<pdfrwt beam="1">  1        1 0.26400877E+00 0.53887200E+03</pdfrwt>
<pdfrwt beam="2">0</pdfrwt>
<totfact> 0.53340452E+00</totfact>
</mgrwt>
</event>
<event>
 6    1  0.4482121E-003  0.6498333E+03  0.7818608E-02  0.9807092E-01
          1   -1    0    0  502    0  0.00000000000E+00  0.00000000000E+00  0.10557739979E+03  0.10557739979E+03  0.00000000000E+00 0.  1.
         13   -1    0    0    0    0 -0.00000000000E+00 -0.00000000000E+00 -0.10000000000E+04  0.10000000000E+04  0.00000000000E+00 0.  1.
    9000005    2    1    2  501    0 -0.29421293840E-03 -0.16699784014E-03 -0.89442915459E+03  0.11055708367E+04  0.64983333429E+03 0.  0.
         13    1    3    3    0    0 -0.10817891481E+03 -0.45038421533E+02  0.68369917322E+02  0.13566717590E+03  0.00000000000E+00 0.  1.
          3    1    3    3  501    0  0.10817862060E+03  0.45038254535E+02 -0.96279907191E+03  0.96990366078E+03  0.00000000000E+00 0.  1.
         21    1    1    2  502  501  0.29421293839E-03  0.16699784014E-03  0.65543830284E-02  0.65631079844E-02  0.00000000000E+00 0. -1.
<mgrwt>
<rscale>  1 0.64983333E+03</rscale>
<asrwt>0</asrwt>
<pdfrwt beam="1">  1        1 0.38391863E+00 0.64983333E+03</pdfrwt>
<pdfrwt beam="2">0</pdfrwt>
<totfact> 0.15769119E+00</totfact>
</mgrwt>
</event>
<event>
 6    1  0.4482121E-003  0.6508737E+03  0.7818608E-02  0.9805141E-01
          1   -1    0    0  502    0  0.00000000000E+00  0.00000000000E+00  0.10597943747E+03  0.10597943747E+03  0.00000000000E+00 0.  1.
         13   -1    0    0    0    0 -0.00000000000E+00 -0.00000000000E+00 -0.10000000000E+04  0.10000000000E+04  0.00000000000E+00 0.  1.
    9000005    2    1    2  501    0  0.55665585016E-02  0.94524602198E-01 -0.89405368928E+03  0.11058791216E+04  0.65087373842E+03 0.  0.
         13    1    3    3    0    0  0.28770584839E+03  0.37458564688E+02 -0.19653887012E+03  0.35043590960E+03  0.00000000000E+00 0.  1.
          3    1    3    3  501    0 -0.28770028183E+03 -0.37364040086E+02 -0.69751481915E+03  0.75544321203E+03  0.00000000000E+00 0.  1.
         21    1    1    2  502  501 -0.55665585016E-02 -0.94524602198E-01  0.33126745864E-01  0.10031584265E+00  0.00000000000E+00 0. -1.
<mgrwt>
<rscale>  1 0.65087375E+03</rscale>
<asrwt>0</asrwt>
<pdfrwt beam="1">  1        1 0.38538059E+00 0.65087375E+03</pdfrwt>
<pdfrwt beam="2">0</pdfrwt>
<totfact> 0.15533116E+00</totfact>
</mgrwt>
</event>
<event>
 6    1  0.4482121E-003  0.6361282E+03  0.7818608E-02  0.9833162E-01
          1   -1    0    0  502    0  0.00000000000E+00  0.00000000000E+00  0.10143786799E+03  0.10143786799E+03  0.00000000000E+00 0.  1.
         13   -1    0    0    0    0 -0.00000000000E+00 -0.00000000000E+00 -0.10000000000E+04  0.10000000000E+04  0.00000000000E+00 0.  1.
    9000005    2    1    2  501    0 -0.83344896781E-02  0.45633245942E-02 -0.89883513471E+03  0.11011647000E+04  0.63612820800E+03 0.  0.
         13    1    3    3    0    0 -0.16943173337E+02 -0.10961649127E+03  0.66600949729E+02  0.12937748176E+03  0.00000000000E+00 0.  1.
          1    1    3    3  501    0  0.16934838847E+02  0.10962105460E+03 -0.96543608444E+03  0.97178721823E+03  0.00000000000E+00 0.  1.
         21    1    1    2  502  501  0.83344896781E-02 -0.45633245942E-02  0.27300269436E+00  0.27316800467E+00  0.00000000000E+00 0. -1.
<mgrwt>
<rscale>  1 0.63612821E+03</rscale>
<asrwt>0</asrwt>
<pdfrwt beam="1">  1        1 0.36886575E+00 0.63612821E+03</pdfrwt>
<pdfrwt beam="2">0</pdfrwt>
<totfact> 0.18416328E+00</totfact>
</mgrwt>
</event>
<event>
 6    1  0.4482121E-003  0.6614709E+03  0.7818608E-02  0.9785490E-01
          1   -1    0    0  502    0  0.00000000000E+00  0.00000000000E+00  0.10940710991E+03  0.10940710991E+03  0.00000000000E+00 0.  1.
         13   -1    0    0    0    0 -0.00000000000E+00 -0.00000000000E+00 -0.10000000000E+04  0.10000000000E+04  0.00000000000E+00 0.  1.
    9000005    2    1    2  501    0  0.52835735227E-03  0.19422691410E-02 -0.89061402428E+03  0.11093858801E+04  0.66147085400E+03 0.  0.
         13    1    3    3    0    0  0.29834695435E+03  0.28116594141E+00 -0.68470601860E+03  0.74688239779E+03  0.00000000000E+00 0.  1.
          3    1    3    3  501    0 -0.29834642600E+03 -0.27922367227E+00 -0.20590800568E+03  0.36250348229E+03  0.00000000000E+00 0.  1.
         21    1    1    2  502  501 -0.52835735229E-03 -0.19422691410E-02  0.21134191516E-01  0.21229828590E-01  0.00000000000E+00 0.  1.
<mgrwt>
<rscale>  1 0.66147085E+03</rscale>
<asrwt>0</asrwt>
<pdfrwt beam="1">  1        1 0.39784487E+00 0.66147085E+03</pdfrwt>
<pdfrwt beam="2">0</pdfrwt>
<totfact> 0.13648292E+00</totfact>
</mgrwt>
</event>
<event>
 6    1  0.4482121E-003  0.6424720E+03  0.7818608E-02  0.9821008E-01
          1   -1    0    0  502    0  0.00000000000E+00  0.00000000000E+00  0.10319259832E+03  0.10319259832E+03  0.00000000000E+00 0.  1.
         13   -1    0    0    0    0 -0.00000000000E+00 -0.00000000000E+00 -0.10000000000E+04  0.10000000000E+04  0.00000000000E+00 0.  1.
    9000005    2    1    2  501    0 -0.39494450391E-04  0.17599021973E-04 -0.89680741928E+03  0.11031925516E+04  0.64247199061E+03 0.  0.
         13    1    3    3    0    0  0.22908071753E+03  0.66183962209E+02 -0.78789822254E+02  0.25112970372E+03  0.00000000000E+00 0.  1.
          1    1    3    3  501    0 -0.22908075703E+03 -0.66183944610E+02 -0.81801759702E+03  0.85206284792E+03  0.00000000000E+00 0.  1.
         21    1    1    2  502  501  0.39494450383E-04 -0.17599021969E-04  0.17600711442E-04  0.46683211421E-04  0.00000000000E+00 0.  1.
<mgrwt>
<rscale>  1 0.64247199E+03</rscale>
<asrwt>0</asrwt>
<pdfrwt beam="1">  1        1 0.37524660E+00 0.64247199E+03</pdfrwt>
<pdfrwt beam="2">0</pdfrwt>
<totfact> 0.17244505E+00</totfact>
</mgrwt>
</event>
<event>
 6    1  0.4482121E-003  0.6614978E+03  0.7818608E-02  0.9785440E-01
          1   -1    0    0  502    0  0.00000000000E+00  0.00000000000E+00  0.10939906216E+03  0.10939906216E+03  0.00000000000E+00 0.  1.
         13   -1    0    0    0    0 -0.00000000000E+00 -0.00000000000E+00 -0.10000000000E+04  0.10000000000E+04  0.00000000000E+00 0.  1.
    9000005    2    1    2  501    0 -0.13357048374E-03 -0.26455960722E-03 -0.89060515616E+03  0.11093948334E+04  0.66149780975E+03 0.  0.
         13    1    3    3    0    0  0.68581475451E+02  0.32352276089E+03 -0.43702702302E+03  0.54805384265E+03  0.00000000000E+00 0.  1.
          1    1    3    3  501    0 -0.68581609022E+02 -0.32352302545E+03 -0.45357813313E+03  0.56134099080E+03  0.00000000000E+00 0.  1.
         21    1    1    2  502  501  0.13357048373E-03  0.26455960718E-03  0.42183159633E-02  0.42287140393E-02  0.00000000000E+00 0.  1.
<mgrwt>
<rscale>  1 0.66149781E+03</rscale>
<asrwt>0</asrwt>
<pdfrwt beam="1">  1        1 0.39781561E+00 0.66149781E+03</pdfrwt>
<pdfrwt beam="2">0</pdfrwt>
<totfact> 0.13652321E+00</totfact>
</mgrwt>
</event>
<event>
 6    1  0.4482121E-003  0.6233297E+03  0.7818608E-02  0.9858153E-01
          1   -1    0    0  502    0  0.00000000000E+00  0.00000000000E+00  0.10452293410E+03  0.10452293410E+03  0.00000000000E+00 0.  1.
         13   -1    0    0    0    0 -0.00000000000E+00 -0.00000000000E+00 -0.10000000000E+04  0.10000000000E+04  0.00000000000E+00 0.  1.
    9000005    2    1    2  501    0 -0.23440786148E+00  0.11283601662E+00 -0.90286251121E+03  0.10971329083E+04  0.62332963721E+03 0.  0.
         13    1    3    3    0    0 -0.34544944179E+02 -0.71544246211E+02 -0.98187510114E+03  0.98508408097E+03  0.00000000000E+00 0.  1.
          1    1    3    3  501    0  0.34310536318E+02  0.71657082228E+02  0.79012589934E+02  0.11204882732E+03  0.00000000000E+00 0.  1.
         21    1    1    2  502  501  0.23440786148E+00 -0.11283601662E+00  0.73854453116E+01  0.73900258093E+01  0.00000000000E+00 0. -1.
<mgrwt>
<rscale>  1 0.62332969E+03</rscale>
<asrwt>0</asrwt>
<pdfrwt beam="1">  1        1 0.38008420E+00 0.62332969E+03</pdfrwt>
<pdfrwt beam="2">0</pdfrwt>
<totfact> 0.16477389E+00</totfact>
</mgrwt>
</event>
<event>
 6    1  0.4482121E-003  0.6431876E+03  0.7818608E-02  0.9819647E-01
          1   -1    0    0  502    0  0.00000000000E+00  0.00000000000E+00  0.10342281533E+03  0.10342281533E+03  0.00000000000E+00 0.  1.
         13   -1    0    0    0    0 -0.00000000000E+00 -0.00000000000E+00 -0.10000000000E+04  0.10000000000E+04  0.00000000000E+00 0.  1.
    9000005    2    1    2  501    0  0.18110723687E-04 -0.14799753757E-04 -0.89657744083E+03  0.11034225581E+04  0.64318755766E+03 0.  0.
         13    1    3    3    0    0 -0.21306756198E+03 -0.23466153434E+03 -0.35497244968E+03  0.47588786672E+03  0.00000000000E+00 0.  1.
          1    1    3    3  501    0  0.21306758009E+03  0.23466151954E+03 -0.54160499116E+03  0.62753469138E+03  0.00000000000E+00 0.  1.
         21    1    1    2  502  501 -0.18110723677E-04  0.14799753738E-04  0.25616346142E-03  0.25722898357E-03  0.00000000000E+00 0.  1.
<mgrwt>
<rscale>  1 0.64318756E+03</rscale>
<asrwt>0</asrwt>
<pdfrwt beam="1">  1        1 0.37608376E+00 0.64318756E+03</pdfrwt>
<pdfrwt beam="2">0</pdfrwt>
<totfact> 0.17096520E+00</totfact>
</mgrwt>
</event>
<event>
 6    1  0.5421246E-003  0.6105464E+03  0.7818608E-02  0.9883764E-01
          1   -1    0    0  502    0  0.00000000000E+00  0.00000000000E+00  0.93191723032E+02  0.93191723032E+02  0.00000000000E+00 0.  1.
         13   -1    0    0    0    0 -0.00000000000E+00 -0.00000000000E+00 -0.10000000000E+04  0.10000000000E+04  0.00000000000E+00 0.  1.
    9000005    2    1    2  501    0 -0.35187247249E-05  0.53337588568E-06 -0.90680827827E+03  0.10931917192E+04  0.61054637947E+03 0.  0.
         13    1    3    3    0    0  0.29704504642E+03  0.37535084481E+01 -0.32753380657E+03  0.44218575607E+03  0.00000000000E+00 0.  1.
          3    1    3    3  501    0 -0.29704504994E+03 -0.37535079147E+01 -0.57927447170E+03  0.65100596317E+03  0.00000000000E+00 0.  1.
         21    1    1    2  502  501  0.35187247535E-05 -0.53337588586E-06  0.13018206906E-05  0.37895449380E-05  0.00000000000E+00 0. -1.
<mgrwt>
<rscale>  1 0.61054638E+03</rscale>
<asrwt>0</asrwt>
<pdfrwt beam="1">  1        1 0.33887971E+00 0.61054638E+03</pdfrwt>
<pdfrwt beam="2">0</pdfrwt>
<totfact> 0.25006869E+00</totfact>
</mgrwt>
</event>
<event>
 6    1  0.4482121E-003  0.6508864E+03  0.7818608E-02  0.9805117E-01
          1   -1    0    0  502    0  0.00000000000E+00  0.00000000000E+00  0.12010077586E+03  0.12010077586E+03  0.00000000000E+00 0.  1.
         13   -1    0    0    0    0 -0.00000000000E+00 -0.00000000000E+00 -0.10000000000E+04  0.10000000000E+04  0.00000000000E+00 0.  1.
    9000005    2    1    2  501    0  0.20427681077E+01 -0.17877920947E+01 -0.89394296801E+03  0.11057970755E+04  0.65088076713E+03 0.  0.
         13    1    3    3    0    0 -0.71765947452E+02  0.28975905923E+03 -0.66136532510E+03  0.72561336596E+03  0.00000000000E+00 0.  1.
          3    1    3    3  501    0  0.73808715560E+02 -0.29154685133E+03 -0.23257764291E+03  0.38018370954E+03  0.00000000000E+00 0.  1.
         21    1    1    2  502  501 -0.20427681077E+01  0.17877920947E+01  0.14043743876E+02  0.14303700367E+02  0.00000000000E+00 0.  1.
<mgrwt>
<rscale>  1 0.65088643E+03</rscale>
<asrwt>0</asrwt>
<pdfrwt beam="1">  1        1 0.43673101E+00 0.65088643E+03</pdfrwt>
<pdfrwt beam="2">0</pdfrwt>
<totfact> 0.91370654E-01</totfact>
</mgrwt>
</event>
<event>
 6    1  0.4482121E-003  0.6505085E+03  0.7818608E-02  0.9805825E-01
          1   -1    0    0  502    0  0.00000000000E+00  0.00000000000E+00  0.10579035377E+03  0.10579035377E+03  0.00000000000E+00 0.  1.
         13   -1    0    0    0    0 -0.00000000000E+00 -0.00000000000E+00 -0.10000000000E+04  0.10000000000E+04  0.00000000000E+00 0.  1.
    9000005    2    1    2  501    0  0.38269023435E-05  0.54050989178E-05 -0.89420966291E+03  0.11057903358E+04  0.65050852844E+03 0.  0.
         13    1    3    3    0    0  0.20798110010E+03 -0.99452955907E+02 -0.83712887694E+03  0.86829245363E+03  0.00000000000E+00 0.  1.
          3    1    3    3  501    0 -0.20798109627E+03  0.99452961312E+02 -0.57080785969E+02  0.23749788219E+03  0.00000000000E+00 0.  1.
         21    1    1    2  502  501 -0.38269023279E-05 -0.54050989227E-05  0.16676127696E-04  0.17943063026E-04  0.00000000000E+00 0.  1.
<mgrwt>
<rscale>  1 0.65050853E+03</rscale>
<asrwt>0</asrwt>
<pdfrwt beam="1">  1        1 0.38469301E+00 0.65050853E+03</pdfrwt>
<pdfrwt beam="2">0</pdfrwt>
<totfact> 0.15643332E+00</totfact>
</mgrwt>
</event>
<event>
 6    1  0.4482121E-003  0.5622640E+03  0.7818608E-02  0.9986945E-01
          3   -1    0    0  502    0  0.00000000000E+00  0.00000000000E+00  0.81227432358E+02  0.81227432358E+02  0.00000000000E+00 0.  1.
         13   -1    0    0    0    0 -0.00000000000E+00 -0.00000000000E+00 -0.10000000000E+04  0.10000000000E+04  0.00000000000E+00 0.  1.
    9000005    2    1    2  501    0  0.11951642919E+00  0.25071178941E+00 -0.92095530473E+03  0.10790270956E+04  0.56226392615E+03 0.  0.
         13    1    3    3    0    0 -0.14698264211E+03 -0.18331910311E+03 -0.16446925796E+03  0.28680991521E+03  0.00000000000E+00 0.  1.
          3    1    3    3  501    0  0.14710215854E+03  0.18356981490E+03 -0.75648604677E+03  0.79221718042E+03  0.00000000000E+00 0.  1.
         21    1    1    2  502  501 -0.11951642919E+00 -0.25071178941E+00  0.21827370835E+01  0.22003367365E+01  0.00000000000E+00 0.  1.
<mgrwt>
<rscale>  1 0.56226399E+03</rscale>
<asrwt>0</asrwt>
<pdfrwt beam="1">  1        3 0.29537310E+00 0.56226399E+03</pdfrwt>
<pdfrwt beam="2">0</pdfrwt>
<totfact> 0.21681424E-01</totfact>
</mgrwt>
</event>
<event>
 6    1  0.4482121E-003  0.6172087E+03  0.7818608E-02  0.9870333E-01
          1   -1    0    0  502    0  0.00000000000E+00  0.00000000000E+00  0.95236708773E+02  0.95236708773E+02  0.00000000000E+00 0.  1.
         13   -1    0    0    0    0 -0.00000000000E+00 -0.00000000000E+00 -0.10000000000E+04  0.10000000000E+04  0.00000000000E+00 0.  1.
    9000005    2    1    2  501    0 -0.19289161997E-04  0.36275080561E-04 -0.90476334680E+03  0.10952366397E+04  0.61720870308E+03 0.  0.
         13    1    3    3    0    0  0.25147407545E+03 -0.10568877090E+03 -0.19629171454E+03  0.33606511886E+03  0.00000000000E+00 0.  1.
          3    1    3    3  501    0 -0.25147409474E+03  0.10568880718E+03 -0.70847163226E+03  0.75917152081E+03  0.00000000000E+00 0.  1.
         21    1    1    2  502  501  0.19289162007E-04 -0.36275080567E-04  0.55568284594E-04  0.69107072676E-04  0.00000000000E+00 0. -1.
<mgrwt>
<rscale>  1 0.61720870E+03</rscale>
<asrwt>0</asrwt>
<pdfrwt beam="1">  1        1 0.34631603E+00 0.61720870E+03</pdfrwt>
<pdfrwt beam="2">0</pdfrwt>
<totfact> 0.23185743E+00</totfact>
</mgrwt>
</event>
<event>
 6    1  0.4482121E-003  0.6384356E+03  0.7818608E-02  0.9828724E-01
          1   -1    0    0  502    0  0.00000000000E+00  0.00000000000E+00  0.10190353159E+03  0.10190353159E+03  0.00000000000E+00 0.  1.
         13   -1    0    0    0    0 -0.00000000000E+00 -0.00000000000E+00 -0.10000000000E+04  0.10000000000E+04  0.00000000000E+00 0.  1.
    9000005    2    1    2  501    0  0.38152177933E-03  0.33105365398E-03 -0.89809998627E+03  0.11018999776E+04  0.63843556872E+03 0.  0.
         13    1    3    3    0    0  0.26730026906E+03  0.17447627716E+03 -0.44394540204E+03  0.54678965345E+03  0.00000000000E+00 0.  1.
          3    1    3    3  501    0 -0.26729988754E+03 -0.17447594611E+03 -0.45415458423E+03  0.55511032420E+03  0.00000000000E+00 0.  1.
         21    1    1    2  502  501 -0.38152177933E-03 -0.33105365397E-03  0.35178557718E-02  0.35539364965E-02  0.00000000000E+00 0.  1.
<mgrwt>
<rscale>  1 0.63843557E+03</rscale>
<asrwt>0</asrwt>
<pdfrwt beam="1">  1        1 0.37055908E+00 0.63843557E+03</pdfrwt>
<pdfrwt beam="2">0</pdfrwt>
<totfact> 0.18096089E+00</totfact>
</mgrwt>
</event>
<event>
 6    1  0.4482121E-003  0.6359570E+03  0.7818608E-02  0.9833493E-01
          1   -1    0    0  502    0  0.00000000000E+00  0.00000000000E+00  0.10158491486E+03  0.10158491486E+03  0.00000000000E+00 0.  1.
         13   -1    0    0    0    0 -0.00000000000E+00 -0.00000000000E+00 -0.10000000000E+04  0.10000000000E+04  0.00000000000E+00 0.  1.
    9000005    2    1    2  501    0  0.12856247090E+01  0.69853923112E+00 -0.89680704430E+03  0.10994108442E+04  0.63595533556E+03 0.  0.
         13    1    3    3    0    0 -0.20616668293E+03  0.21097817020E+03 -0.24377348374E+03  0.38267741092E+03  0.00000000000E+00 0.  1.
          1    1    3    3  501    0  0.20745230764E+03 -0.21027963097E+03 -0.65303356057E+03  0.71673343328E+03  0.00000000000E+00 0.  1.
         21    1    1    2  502  501 -0.12856247090E+01 -0.69853923112E+00 -0.16080408326E+01  0.21740706680E+01  0.00000000000E+00 0. -1.
<mgrwt>
<rscale>  1 0.63595702E+03</rscale>
<asrwt>0</asrwt>
<pdfrwt beam="1">  1        1 0.36940047E+00 0.63595702E+03</pdfrwt>
<pdfrwt beam="2">0</pdfrwt>
<totfact> 0.18317627E+00</totfact>
</mgrwt>
</event>
<event>
 6    1  0.4482121E-003  0.6545417E+03  0.7818608E-02  0.9798294E-01
          1   -1    0    0  502    0  0.00000000000E+00  0.00000000000E+00  0.10710810075E+03  0.10710810075E+03  0.00000000000E+00 0.  1.
         13   -1    0    0    0    0 -0.00000000000E+00 -0.00000000000E+00 -0.10000000000E+04  0.10000000000E+04  0.00000000000E+00 0.  1.
    9000005    2    1    2  501    0 -0.29609629336E-02 -0.45684807830E-02 -0.89288744666E+03  0.11071010677E+04  0.65454165769E+03 0.  0.
         13    1    3    3    0    0  0.18990745957E+03  0.17540666036E+03 -0.10700775054E+03  0.27979099051E+03  0.00000000000E+00 0.  1.
          3    1    3    3  501    0 -0.18991042053E+03 -0.17541122884E+03 -0.78587969612E+03  0.82731007718E+03  0.00000000000E+00 0.  1.
         21    1    1    2  502  501  0.29609629336E-02  0.45684807830E-02 -0.44525939147E-02  0.70330584192E-02  0.00000000000E+00 0.  1.
<mgrwt>
<rscale>  1 0.65454166E+03</rscale>
<asrwt>0</asrwt>
<pdfrwt beam="1">  1        1 0.38948482E+00 0.65454166E+03</pdfrwt>
<pdfrwt beam="2">0</pdfrwt>
<totfact> 0.14886307E+00</totfact>
</mgrwt>
</event>
<event>
 6    1  0.4482121E-003  0.6470366E+03  0.7818608E-02  0.9812356E-01
          1   -1    0    0  502    0  0.00000000000E+00  0.00000000000E+00  0.10466744394E+03  0.10466744394E+03  0.00000000000E+00 0.  1.
         13   -1    0    0    0    0 -0.00000000000E+00 -0.00000000000E+00 -0.10000000000E+04  0.10000000000E+04  0.00000000000E+00 0.  1.
    9000005    2    1    2  501    0 -0.55537331153E-04 -0.33392523562E-04 -0.89533591254E+03  0.11046640868E+04  0.64703658975E+03 0.  0.
         13    1    3    3    0    0  0.29059713311E+02  0.31954018717E+03 -0.37699292662E+03  0.49504955800E+03  0.00000000000E+00 0.  1.
          3    1    3    3  501    0 -0.29059768848E+02 -0.31954022056E+03 -0.51834298592E+03  0.60961452884E+03  0.00000000000E+00 0.  1.
         21    1    1    2  502  501  0.55537331154E-04  0.33392523566E-04  0.33564760467E-02  0.33571015636E-02  0.00000000000E+00 0.  1.
<mgrwt>
<rscale>  1 0.64703659E+03</rscale>
<asrwt>0</asrwt>
<pdfrwt beam="1">  1        1 0.38060969E+00 0.64703659E+03</pdfrwt>
<pdfrwt beam="2">0</pdfrwt>
<totfact> 0.16317263E+00</totfact>
</mgrwt>
</event>
<event>
 6    1  0.4482121E-003  0.6498990E+03  0.7818608E-02  0.9806969E-01
          1   -1    0    0  502    0  0.00000000000E+00  0.00000000000E+00  0.10559254389E+03  0.10559254389E+03  0.00000000000E+00 0.  1.
         13   -1    0    0    0    0 -0.00000000000E+00 -0.00000000000E+00 -0.10000000000E+04  0.10000000000E+04  0.00000000000E+00 0.  1.
    9000005    2    1    2  501    0  0.20962344820E-05  0.13319005433E-04 -0.89440781562E+03  0.11055921841E+04  0.64989902058E+03 0.  0.
         13    1    3    3    0    0  0.21620246373E+03  0.22729007418E+03 -0.30297570012E+03  0.43611759653E+03  0.00000000000E+00 0.  1.
          3    1    3    3  501    0 -0.21620246163E+03 -0.22729006086E+03 -0.59143211551E+03  0.66947458759E+03  0.00000000000E+00 0.  1.
         21    1    1    2  502  501 -0.20962344667E-05 -0.13319005440E-04  0.35951387404E-03  0.35976661286E-03  0.00000000000E+00 0. -1.
<mgrwt>
<rscale>  1 0.64989902E+03</rscale>
<asrwt>0</asrwt>
<pdfrwt beam="1">  1        1 0.38397370E+00 0.64989902E+03</pdfrwt>
<pdfrwt beam="2">0</pdfrwt>
<totfact> 0.15760091E+00</totfact>
</mgrwt>
</event>
<event>
 6    1  0.4482121E-003  0.6537390E+03  0.7818608E-02  0.9799788E-01
          1   -1    0    0  502    0  0.00000000000E+00  0.00000000000E+00  0.10687587539E+03  0.10687587539E+03  0.00000000000E+00 0.  1.
         13   -1    0    0    0    0 -0.00000000000E+00 -0.00000000000E+00 -0.10000000000E+04  0.10000000000E+04  0.00000000000E+00 0.  1.
    9000005    2    1    2  501    0  0.60336425525E-02  0.49491744098E-02 -0.89315579820E+03  0.11068432546E+04  0.65373902311E+03 0.  0.
         13    1    3    3    0    0 -0.12517402857E+03  0.90064818424E+01 -0.95758119195E+03  0.96576984490E+03  0.00000000000E+00 0.  1.
          3    1    3    3  501    0  0.12518006222E+03 -0.90015326680E+01  0.64425393743E+02  0.14107340970E+03  0.00000000000E+00 0.  1.
         21    1    1    2  502  501 -0.60336425525E-02 -0.49491744098E-02  0.31673598444E-01  0.32620791042E-01  0.00000000000E+00 0. -1.
<mgrwt>
<rscale>  1 0.65373902E+03</rscale>
<asrwt>0</asrwt>
<pdfrwt beam="1">  1        1 0.38864037E+00 0.65373902E+03</pdfrwt>
<pdfrwt beam="2">0</pdfrwt>
<totfact> 0.15017397E+00</totfact>
</mgrwt>
</event>
<event>
 6    1  0.4482121E-003  0.6464535E+03  0.7818608E-02  0.9813457E-01
          1   -1    0    0  502    0  0.00000000000E+00  0.00000000000E+00  0.10888683868E+03  0.10888683868E+03  0.00000000000E+00 0.  1.
         13   -1    0    0    0    0 -0.00000000000E+00 -0.00000000000E+00 -0.10000000000E+04  0.10000000000E+04  0.00000000000E+00 0.  1.
    9000005    2    1    2  501    0 -0.58460647136E+01  0.12387476693E+01 -0.89316957891E+03  0.11025670427E+04  0.64642592452E+03 0.  0.
         13    1    3    3    0    0  0.53651660269E+02 -0.52669149452E+02 -0.98082333363E+03  0.98370064133E+03  0.00000000000E+00 0.  1.
          3    1    3    3  501    0 -0.59497724983E+02  0.53907897121E+02  0.87653754715E+02  0.11886640133E+03  0.00000000000E+00 0.  1.
         21    1    1    2  502  501  0.58460647136E+01 -0.12387476693E+01  0.20564175944E+01  0.63197960210E+01  0.00000000000E+00 0. -1.
<mgrwt>
<rscale>  1 0.64645355E+03</rscale>
<asrwt>0</asrwt>
<pdfrwt beam="1">  1        1 0.39595298E+00 0.64645355E+03</pdfrwt>
<pdfrwt beam="2">0</pdfrwt>
<totfact> 0.13954856E+00</totfact>
</mgrwt>
</event>
<event>
 6    1  0.4482121E-003  0.6478022E+03  0.7818608E-02  0.9810912E-01
          1   -1    0    0  502    0  0.00000000000E+00  0.00000000000E+00  0.10491204522E+03  0.10491204522E+03  0.00000000000E+00 0.  1.
         13   -1    0    0    0    0 -0.00000000000E+00 -0.00000000000E+00 -0.10000000000E+04  0.10000000000E+04  0.00000000000E+00 0.  1.
    9000005    2    1    2  501    0  0.75509574865E-04 -0.50620122806E-04 -0.89508806369E+03  0.11049119034E+04  0.64780218618E+03 0.  0.
         13    1    3    3    0    0 -0.50474331574E+00  0.18600759381E+03  0.47309325305E+01  0.18606843215E+03  0.00000000000E+00 0.  1.
          3    1    3    3  501    0  0.50481882531E+00 -0.18600764443E+03 -0.89981899622E+03  0.91884347121E+03  0.00000000000E+00 0.  1.
         21    1    1    2  502  501 -0.75509574865E-04  0.50620122783E-04  0.10890508142E-03  0.14186052829E-03  0.00000000000E+00 0. -1.
<mgrwt>
<rscale>  1 0.64780219E+03</rscale>
<asrwt>0</asrwt>
<pdfrwt beam="1">  1        1 0.38149915E+00 0.64780219E+03</pdfrwt>
<pdfrwt beam="2">0</pdfrwt>
<totfact> 0.16168122E+00</totfact>
</mgrwt>
</event>
<event>
 6    1  0.4482121E-003  0.6471130E+03  0.7818608E-02  0.9812212E-01
          1   -1    0    0  502    0  0.00000000000E+00  0.00000000000E+00  0.10470111816E+03  0.10470111816E+03  0.00000000000E+00 0.  1.
         13   -1    0    0    0    0 -0.00000000000E+00 -0.00000000000E+00 -0.10000000000E+04  0.10000000000E+04  0.00000000000E+00 0.  1.
    9000005    2    1    2  501    0  0.45748755529E-02 -0.11062895419E-03 -0.89531071567E+03  0.11046884303E+04  0.64711301213E+03 0.  0.
         13    1    3    3    0    0  0.16609140441E+03 -0.27743610530E+03 -0.46730401478E+03  0.56826946898E+03  0.00000000000E+00 0.  1.
          3    1    3    3  501    0 -0.16608682954E+03  0.27743599467E+03 -0.42800670089E+03  0.53641896134E+03  0.00000000000E+00 0.  1.
         21    1    1    2  502  501 -0.45748755530E-02  0.11062895419E-03  0.11833830046E-01  0.12687839007E-01  0.00000000000E+00 0. -1.
<mgrwt>
<rscale>  1 0.64711301E+03</rscale>
<asrwt>0</asrwt>
<pdfrwt beam="1">  1        1 0.38073214E+00 0.64711301E+03</pdfrwt>
<pdfrwt beam="2">0</pdfrwt>
<totfact> 0.16296740E+00</totfact>
</mgrwt>
</event>
<event>
 6    1  0.4482121E-003  0.6503073E+03  0.7818608E-02  0.9806203E-01
          1   -1    0    0  502    0  0.00000000000E+00  0.00000000000E+00  0.10572492607E+03  0.10572492607E+03  0.00000000000E+00 0.  1.
         13   -1    0    0    0    0 -0.00000000000E+00 -0.00000000000E+00 -0.10000000000E+04  0.10000000000E+04  0.00000000000E+00 0.  1.
    9000005    2    1    2  501    0  0.15452498747E-05 -0.65327990910E-05 -0.89427508685E+03  0.11057249115E+04  0.65030734964E+03 0.  0.
         13    1    3    3    0    0  0.47070139313E+01  0.20671455721E+03 -0.20458168978E+02  0.20777776787E+03  0.00000000000E+00 0.  1.
          1    1    3    3  501    0 -0.47070123861E+01 -0.20671456374E+03 -0.87381691787E+03  0.89794714365E+03  0.00000000000E+00 0.  1.
         21    1    1    2  502  501 -0.15452498749E-05  0.65327990940E-05  0.12917791743E-04  0.14557973921E-04  0.00000000000E+00 0.  1.
<mgrwt>
<rscale>  1 0.65030735E+03</rscale>
<asrwt>0</asrwt>
<pdfrwt beam="1">  1        1 0.38445509E+00 0.65030735E+03</pdfrwt>
<pdfrwt beam="2">0</pdfrwt>
<totfact> 0.15681859E+00</totfact>
</mgrwt>
</event>
<event>
 6    1  0.4482121E-003  0.6522452E+03  0.7818608E-02  0.9802575E-01
          1   -1    0    0  502    0  0.00000000000E+00  0.00000000000E+00  0.10636702243E+03  0.10636702243E+03  0.00000000000E+00 0.  1.
         13   -1    0    0    0    0 -0.00000000000E+00 -0.00000000000E+00 -0.10000000000E+04  0.10000000000E+04  0.00000000000E+00 0.  1.
    9000005    2    1    2  501    0  0.29760470392E-01 -0.97777027690E-02 -0.89360863621E+03  0.11063273514E+04  0.65224520908E+03 0.  0.
         13    1    3    3    0    0 -0.33039432133E+02  0.27892600021E+03 -0.72787677266E+03  0.78018966530E+03  0.00000000000E+00 0.  1.
          1    1    3    3  501    0  0.33069192603E+02 -0.27893577791E+03 -0.16573186355E+03  0.32613768610E+03  0.00000000000E+00 0.  1.
         21    1    1    2  502  501 -0.29760470392E-01  0.97777027690E-02 -0.24341354281E-01  0.39671029702E-01  0.00000000000E+00 0.  1.
<mgrwt>
<rscale>  1 0.65224521E+03</rscale>
<asrwt>0</asrwt>
<pdfrwt beam="1">  1        1 0.38678999E+00 0.65224521E+03</pdfrwt>
<pdfrwt beam="2">0</pdfrwt>
<totfact> 0.15307734E+00</totfact>
</mgrwt>
</event>
<event>
 6    1  0.4482121E-003  0.6517320E+03  0.7818608E-02  0.9803535E-01
          1   -1    0    0  502    0  0.00000000000E+00  0.00000000000E+00  0.10622835262E+03  0.10622835262E+03  0.00000000000E+00 0.  1.
         13   -1    0    0    0    0 -0.00000000000E+00 -0.00000000000E+00 -0.10000000000E+04  0.10000000000E+04  0.00000000000E+00 0.  1.
    9000005    2    1    2  501    0  0.20976259632E-02 -0.13744200604E-02 -0.89381130222E+03  0.11061886186E+04  0.65173201230E+03 0.  0.
         13    1    3    3    0    0  0.22329842841E+03 -0.22564262909E+03 -0.32203529834E+03  0.45219853778E+03  0.00000000000E+00 0.  1.
          3    1    3    3  501    0 -0.22329633078E+03  0.22564125467E+03 -0.57177600388E+03  0.65399008079E+03  0.00000000000E+00 0.  1.
         21    1    1    2  502  501 -0.20976259632E-02  0.13744200604E-02  0.39654834400E-01  0.39734052857E-01  0.00000000000E+00 0.  1.
<mgrwt>
<rscale>  1 0.65173201E+03</rscale>
<asrwt>0</asrwt>
<pdfrwt beam="1">  1        1 0.38628573E+00 0.65173201E+03</pdfrwt>
<pdfrwt beam="2">0</pdfrwt>
<totfact> 0.15388076E+00</totfact>
</mgrwt>
</event>
<event>
 6    1  0.4482121E-003  0.6414794E+03  0.7818608E-02  0.9822900E-01
          1   -1    0    0  502    0  0.00000000000E+00  0.00000000000E+00  0.10289544874E+03  0.10289544874E+03  0.00000000000E+00 0.  1.
         13   -1    0    0    0    0 -0.00000000000E+00 -0.00000000000E+00 -0.10000000000E+04  0.10000000000E+04  0.00000000000E+00 0.  1.
    9000005    2    1    2  501    0  0.92787808623E-03 -0.32771116322E-02 -0.89712588497E+03  0.11028738449E+04  0.64147943395E+03 0.  0.
         13    1    3    3    0    0  0.12882188766E+03  0.87377709028E+02  0.33580016133E+02  0.15924057353E+03  0.00000000000E+00 0.  1.
          3    1    3    3  501    0 -0.12882095978E+03 -0.87380986139E+02 -0.93070590110E+03  0.94363327133E+03  0.00000000000E+00 0.  1.
         21    1    1    2  502  501 -0.92787808623E-03  0.32771116322E-02  0.21333713914E-01  0.21603883164E-01  0.00000000000E+00 0.  1.
<mgrwt>
<rscale>  1 0.64147943E+03</rscale>
<asrwt>0</asrwt>
<pdfrwt beam="1">  1        1 0.37416606E+00 0.64147943E+03</pdfrwt>
<pdfrwt beam="2">0</pdfrwt>
<totfact> 0.17437544E+00</totfact>
</mgrwt>
</event>
<event>
 6    1  0.4482121E-003  0.6413124E+03  0.7818608E-02  0.9823219E-01
          1   -1    0    0  502    0  0.00000000000E+00  0.00000000000E+00  0.10282159713E+03  0.10282159713E+03  0.00000000000E+00 0.  1.
         13   -1    0    0    0    0 -0.00000000000E+00 -0.00000000000E+00 -0.10000000000E+04  0.10000000000E+04  0.00000000000E+00 0.  1.
    9000005    2    1    2  501    0 -0.13626648165E-02 -0.22054474255E-03 -0.89717915778E+03  0.11028200238E+04  0.64131237610E+03 0.  0.
         13    1    3    3    0    0 -0.34060292013E+02 -0.31730168098E+03 -0.50242406111E+03  0.59520618060E+03  0.00000000000E+00 0.  1.
          1    1    3    3  501    0  0.34058929348E+02  0.31730146043E+03 -0.39475509666E+03  0.50761384319E+03  0.00000000000E+00 0.  1.
         21    1    1    2  502  501  0.13626648165E-02  0.22054474256E-03  0.75490416078E-03  0.15733326659E-02  0.00000000000E+00 0. -1.
<mgrwt>
<rscale>  1 0.64131238E+03</rscale>
<asrwt>0</asrwt>
<pdfrwt beam="1">  1        1 0.37389751E+00 0.64131238E+03</pdfrwt>
<pdfrwt beam="2">0</pdfrwt>
<totfact> 0.17485585E+00</totfact>
</mgrwt>
</event>
<event>
 6    1  0.4482121E-003  0.6161193E+03  0.7818608E-02  0.9872517E-01
          1   -1    0    0  502    0  0.00000000000E+00  0.00000000000E+00  0.10700179231E+03  0.10700179231E+03  0.00000000000E+00 0.  1.
         13   -1    0    0    0    0 -0.00000000000E+00 -0.00000000000E+00 -0.10000000000E+04  0.10000000000E+04  0.00000000000E+00 0.  1.
    9000005    2    1    2  501    0 -0.13301587602E+01  0.15664898195E+01 -0.90500366047E+03  0.10948217221E+04  0.61611586135E+03 0.  0.
         13    1    3    3    0    0  0.15961145915E+03  0.25880805366E+03 -0.54416260252E+03  0.62335412449E+03  0.00000000000E+00 0.  1.
          3    1    3    3  501    0 -0.16094161791E+03 -0.25724156384E+03 -0.36084105795E+03  0.47146759766E+03  0.00000000000E+00 0.  1.
         21    1    1    2  502  501  0.13301587602E+01 -0.15664898195E+01  0.12005452779E+02  0.12180070161E+02  0.00000000000E+00 0.  1.
<mgrwt>
<rscale>  1 0.61611929E+03</rscale>
<asrwt>0</asrwt>
<pdfrwt beam="1">  1        1 0.38909825E+00 0.61611929E+03</pdfrwt>
<pdfrwt beam="2">0</pdfrwt>
<totfact> 0.15054723E+00</totfact>
</mgrwt>
</event>
<event>
 6    1  0.4482121E-003  0.6469395E+03  0.7818608E-02  0.9812539E-01
          1   -1    0    0  502    0  0.00000000000E+00  0.00000000000E+00  0.10463272827E+03  0.10463272827E+03  0.00000000000E+00 0.  1.
         13   -1    0    0    0    0 -0.00000000000E+00 -0.00000000000E+00 -0.10000000000E+04  0.10000000000E+04  0.00000000000E+00 0.  1.
    9000005    2    1    2  501    0 -0.19083781382E-05 -0.39031371557E-05 -0.89536730466E+03  0.11046326951E+04  0.64693954952E+03 0.  0.
         13    1    3    3    0    0  0.24419767874E+02 -0.19004410840E+03 -0.26920918070E+01  0.19162550864E+03  0.00000000000E+00 0.  1.
          3    1    3    3  501    0 -0.24419769783E+02  0.19004410450E+03 -0.89267521285E+03  0.91300718642E+03  0.00000000000E+00 0.  1.
         21    1    1    2  502  501  0.19083781399E-05  0.39031371548E-05  0.32926063659E-04  0.33211474747E-04  0.00000000000E+00 0.  1.
<mgrwt>
<rscale>  1 0.64693955E+03</rscale>
<asrwt>0</asrwt>
<pdfrwt beam="1">  1        1 0.38048345E+00 0.64693955E+03</pdfrwt>
<pdfrwt beam="2">0</pdfrwt>
<totfact> 0.16338501E+00</totfact>
</mgrwt>
</event>
<event>
 6    1  0.4482121E-003  0.6520463E+03  0.7818608E-02  0.9802947E-01
          1   -1    0    0  502    0  0.00000000000E+00  0.00000000000E+00  0.10982032471E+03  0.10982032471E+03  0.00000000000E+00 0.  1.
         13   -1    0    0    0    0 -0.00000000000E+00 -0.00000000000E+00 -0.10000000000E+04  0.10000000000E+04  0.00000000000E+00 0.  1.
    9000005    2    1    2  501    0  0.27724251180E+00  0.61872403957E+00 -0.89367285773E+03  0.11062619534E+04  0.65204591342E+03 0.  0.
         13    1    3    3    0    0 -0.11716334462E+03 -0.83810244381E+02  0.49303580015E+02  0.15225718173E+03  0.00000000000E+00 0.  1.
          3    1    3    3  501    0  0.11744058714E+03  0.84428968420E+02 -0.94297643775E+03  0.95400477166E+03  0.00000000000E+00 0.  1.
         21    1    1    2  502  501 -0.27724251180E+00 -0.61872403957E+00  0.34931824440E+01  0.35583713177E+01  0.00000000000E+00 0. -1.
<mgrwt>
<rscale>  1 0.65204627E+03</rscale>
<asrwt>0</asrwt>
<pdfrwt beam="1">  1        1 0.39934748E+00 0.65204627E+03</pdfrwt>
<pdfrwt beam="2">0</pdfrwt>
<totfact> 0.13463381E+00</totfact>
</mgrwt>
</event>
<event>
 6    1  0.4482121E-003  0.6466776E+03  0.7818608E-02  0.9813033E-01
          1   -1    0    0  502    0  0.00000000000E+00  0.00000000000E+00  0.10460730788E+03  0.10460730788E+03  0.00000000000E+00 0.  1.
         13   -1    0    0    0    0 -0.00000000000E+00 -0.00000000000E+00 -0.10000000000E+04  0.10000000000E+04  0.00000000000E+00 0.  1.
    9000005    2    1    2  501    0 -0.91516488840E-03  0.44737175540E-02 -0.89545192566E+03  0.11045478986E+04  0.64667759285E+03 0.  0.
         13    1    3    3    0    0 -0.81643374736E+02 -0.22717299517E+03 -0.80302551387E+02  0.25440461893E+03  0.00000000000E+00 0.  1.
          3    1    3    3  501    0  0.81642459571E+02  0.22717746889E+03 -0.81514937427E+03  0.85014327966E+03  0.00000000000E+00 0.  1.
         21    1    1    2  502  501  0.91516488840E-03 -0.44737175540E-02  0.59233533689E-01  0.59409285375E-01  0.00000000000E+00 0.  1.
<mgrwt>
<rscale>  1 0.64667759E+03</rscale>
<asrwt>0</asrwt>
<pdfrwt beam="1">  1        1 0.38039101E+00 0.64667759E+03</pdfrwt>
<pdfrwt beam="2">0</pdfrwt>
<totfact> 0.16354643E+00</totfact>
</mgrwt>
</event>
<event>
 6    1  0.4482121E-003  0.6763920E+03  0.7818608E-02  0.9758479E-01
          1   -1    0    0  502    0  0.00000000000E+00  0.00000000000E+00  0.11437654961E+03  0.11437654961E+03  0.00000000000E+00 0.  1.
         13   -1    0    0    0    0 -0.00000000000E+00 -0.00000000000E+00 -0.10000000000E+04  0.10000000000E+04  0.00000000000E+00 0.  1.
    9000005    2    1    2  501    0  0.68876689596E-05  0.16214614732E-04 -0.88562347246E+03  0.11143765214E+04  0.67639196951E+03 0.  0.
         13    1    3    3    0    0  0.62234729294E+02  0.31916880254E+03 -0.59590488351E+03  0.67885529845E+03  0.00000000000E+00 0.  1.
          3    1    3    3  501    0 -0.62234722406E+02 -0.31916878632E+03 -0.28971858895E+03  0.43552122292E+03  0.00000000000E+00 0.  1.
         21    1    1    2  502  501 -0.68876689570E-05 -0.16214614732E-04  0.22072205585E-04  0.28240679417E-04  0.00000000000E+00 0.  1.
<mgrwt>
<rscale>  1 0.67639197E+03</rscale>
<asrwt>0</asrwt>
<pdfrwt beam="1">  1        1 0.41591560E+00 0.67639197E+03</pdfrwt>
<pdfrwt beam="2">0</pdfrwt>
<totfact> 0.11296496E+00</totfact>
</mgrwt>
</event>
<event>
 6    1  0.4482121E-003  0.6573251E+03  0.7818608E-02  0.9793130E-01
          1   -1    0    0  502    0  0.00000000000E+00  0.00000000000E+00  0.10802674047E+03  0.10802674047E+03  0.00000000000E+00 0.  1.
         13   -1    0    0    0    0 -0.00000000000E+00 -0.00000000000E+00 -0.10000000000E+04  0.10000000000E+04  0.00000000000E+00 0.  1.
    9000005    2    1    2  501    0 -0.32594757243E-03  0.99655536104E-04 -0.89198092166E+03  0.11080190708E+04  0.65732510720E+03 0.  0.
         13    1    3    3    0    0  0.30658464375E+03 -0.10774588114E+03 -0.36314194204E+03  0.48731446599E+03  0.00000000000E+00 0.  1.
          3    1    3    3  501    0 -0.30658496970E+03  0.10774598080E+03 -0.52883897962E+03  0.62070460478E+03  0.00000000000E+00 0.  1.
         21    1    1    2  502  501  0.32594757246E-03 -0.99655536110E-04  0.76621273807E-02  0.76697046256E-02  0.00000000000E+00 0.  1.
<mgrwt>
<rscale>  1 0.65732511E+03</rscale>
<asrwt>0</asrwt>
<pdfrwt beam="1">  1        1 0.39282534E+00 0.65732511E+03</pdfrwt>
<pdfrwt beam="2">0</pdfrwt>
<totfact> 0.14379339E+00</totfact>
</mgrwt>
</event>
<event>
 6    1  0.4482121E-003  0.6293716E+03  0.7818608E-02  0.9846276E-01
          1   -1    0    0  502    0  0.00000000000E+00  0.00000000000E+00  0.99033735520E+02  0.99033735520E+02  0.00000000000E+00 0.  1.
         13   -1    0    0    0    0 -0.00000000000E+00 -0.00000000000E+00 -0.10000000000E+04  0.10000000000E+04  0.00000000000E+00 0.  1.
    9000005    2    1    2  501    0 -0.15125521405E-01 -0.13937096030E-01 -0.90094335971E+03  0.10990029516E+04  0.62937155139E+03 0.  0.
         13    1    3    3    0    0  0.36684511267E+02 -0.30603456192E+03 -0.56130398920E+03  0.64036323657E+03  0.00000000000E+00 0.  1.
          1    1    3    3  501    0 -0.36699636789E+02  0.30602062483E+03 -0.33963937051E+03  0.45863971498E+03  0.00000000000E+00 0.  1.
         21    1    1    2  502  501  0.15125521405E-01  0.13937096030E-01 -0.22904774216E-01  0.30783968643E-01  0.00000000000E+00 0. -1.
<mgrwt>
<rscale>  1 0.62937155E+03</rscale>
<asrwt>0</asrwt>
<pdfrwt beam="1">  1        1 0.36012343E+00 0.62937155E+03</pdfrwt>
<pdfrwt beam="2">0</pdfrwt>
<totfact> 0.20139056E+00</totfact>
</mgrwt>
</event>
<event>
 6    1  0.4482121E-003  0.5967712E+03  0.7818608E-02  0.9912128E-01
          1   -1    0    0  502    0  0.00000000000E+00  0.00000000000E+00  0.12282091087E+03  0.12282091087E+03  0.00000000000E+00 0.  1.
         13   -1    0    0    0    0 -0.00000000000E+00 -0.00000000000E+00 -0.10000000000E+04  0.10000000000E+04  0.00000000000E+00 0.  1.
    9000005    2    1    2  501    0  0.19129464111E+02  0.22627136155E+01 -0.90795334512E+03  0.10865151110E+04  0.59646018585E+03 0.  0.
         13    1    3    3    0    0  0.12984148438E+03 -0.27016759757E+03 -0.51227336975E+03  0.59352619756E+03  0.00000000000E+00 0.  1.
          3    1    3    3  501    0 -0.11071202027E+03  0.27243031118E+03 -0.39567997538E+03  0.49298891347E+03  0.00000000000E+00 0.  1.
         21    1    1    2  502  501 -0.19129464111E+02 -0.22627136155E+01  0.30774255993E+02  0.36305799839E+02  0.00000000000E+00 0.  1.
<mgrwt>
<rscale>  1 0.59677115E+03</rscale>
<asrwt>0</asrwt>
<pdfrwt beam="1">  1        1 0.44662244E+00 0.59677115E+03</pdfrwt>
<pdfrwt beam="2">0</pdfrwt>
<totfact> 0.83289274E-01</totfact>
</mgrwt>
</event>
<event>
 6    1  0.5862271E-003  0.6561072E+03  0.7818608E-02  0.9795387E-01
          1   -1    0    0  502    0  0.00000000000E+00  0.00000000000E+00  0.10761918120E+03  0.10761918120E+03  0.00000000000E+00 0.  1.
         13   -1    0    0    0    0 -0.00000000000E+00 -0.00000000000E+00 -0.10000000000E+04  0.10000000000E+04  0.00000000000E+00 0.  1.
    9000005    2    1    2  501    0 -0.58991842162E-04  0.23536213973E-04 -0.89238078697E+03  0.11076191102E+04  0.65610717436E+03 0.  0.
         13    1    3    3    0    0 -0.51511823670E+01  0.32801278360E+03 -0.44702293194E+03  0.55448031757E+03  0.00000000000E+00 0.  1.
          1    1    3    3  501    0  0.51511233752E+01 -0.32801276007E+03 -0.44535785503E+03  0.55313879260E+03  0.00000000000E+00 0.  1.
         21    1    1    2  502  501  0.58991842162E-04 -0.23536213970E-04 -0.31824804112E-04  0.71040896437E-04  0.00000000000E+00 0.  1.
<mgrwt>
<rscale>  1 0.65610717E+03</rscale>
<asrwt>0</asrwt>
<pdfrwt beam="1">  1        1 0.39134330E+00 0.65610717E+03</pdfrwt>
<pdfrwt beam="2">0</pdfrwt>
<totfact> 0.14602159E+00</totfact>
</mgrwt>
</event>
<event>
 6    1  0.4482121E-003  0.6496742E+03  0.7818608E-02  0.9807391E-01
          1   -1    0    0  502    0  0.00000000000E+00  0.00000000000E+00  0.10581730434E+03  0.10581730434E+03  0.00000000000E+00 0.  1.
         13   -1    0    0    0    0 -0.00000000000E+00 -0.00000000000E+00 -0.10000000000E+04  0.10000000000E+04  0.00000000000E+00 0.  1.
    9000005    2    1    2  501    0 -0.38834427046E-02 -0.28237880468E-01 -0.89448010732E+03  0.11055185299E+04  0.64967419280E+03 0.  0.
         13    1    3    3    0    0 -0.33327984265E+01  0.31981482166E+03 -0.35069828826E+03  0.47463872271E+03  0.00000000000E+00 0.  1.
          3    1    3    3  501    0  0.33289149838E+01 -0.31984305954E+03 -0.54378181906E+03  0.63087980721E+03  0.00000000000E+00 0.  1.
         21    1    1    2  502  501  0.38834427046E-02  0.28237880468E-01  0.29741166424E+00  0.29877442502E+00  0.00000000000E+00 0. -1.
<mgrwt>
<rscale>  1 0.64967419E+03</rscale>
<asrwt>0</asrwt>
<pdfrwt beam="1">  1        1 0.38479101E+00 0.64967419E+03</pdfrwt>
<pdfrwt beam="2">0</pdfrwt>
<totfact> 0.15630135E+00</totfact>
</mgrwt>
</event>
<event>
 6    1  0.4482121E-003  0.6444489E+03  0.7818608E-02  0.9817251E-01
          1   -1    0    0  502    0  0.00000000000E+00  0.00000000000E+00  0.10385532481E+03  0.10385532481E+03  0.00000000000E+00 0.  1.
         13   -1    0    0    0    0 -0.00000000000E+00 -0.00000000000E+00 -0.10000000000E+04  0.10000000000E+04  0.00000000000E+00 0.  1.
    9000005    2    1    2  501    0 -0.11449519133E-03 -0.36889420401E-03 -0.89617139172E+03  0.11038286055E+04  0.64444893278E+03 0.  0.
         13    1    3    3    0    0  0.15139360774E+01  0.23075363850E+02 -0.99857681740E+03  0.99884454480E+03  0.00000000000E+00 0.  1.
          1    1    3    3  501    0 -0.15140505725E+01 -0.23075732744E+02  0.10240542568E+03  0.10498406069E+03  0.00000000000E+00 0.  1.
         21    1    1    2  502  501  0.11449519133E-03  0.36889420401E-03  0.26716527960E-01  0.26719319944E-01  0.00000000000E+00 0.  1.
<mgrwt>
<rscale>  1 0.64444893E+03</rscale>
<asrwt>0</asrwt>
<pdfrwt beam="1">  1        1 0.37765652E+00 0.64444893E+03</pdfrwt>
<pdfrwt beam="2">0</pdfrwt>
<totfact> 0.16822027E+00</totfact>
</mgrwt>
</event>
<event>
 6    1  0.4482121E-003  0.6623936E+03  0.7818608E-02  0.9783797E-01
          1   -1    0    0  502    0  0.00000000000E+00  0.00000000000E+00  0.10972895887E+03  0.10972895887E+03  0.00000000000E+00 0.  1.
         13   -1    0    0    0    0 -0.00000000000E+00 -0.00000000000E+00 -0.10000000000E+04  0.10000000000E+04  0.00000000000E+00 0.  1.
    9000005    2    1    2  501    0 -0.21258488463E-01 -0.28379242328E-02 -0.89030526727E+03  0.11096885682E+04  0.66239357561E+03 0.  0.
         13    1    3    3    0    0  0.22476141964E+03 -0.13071502013E+03 -0.78881025162E+03  0.83055747863E+03  0.00000000000E+00 0.  1.
          3    1    3    3  501    0 -0.22478267813E+03  0.13071218220E+03 -0.10149501565E+03  0.27913108957E+03  0.00000000000E+00 0.  1.
         21    1    1    2  502  501  0.21258488463E-01  0.28379242328E-02  0.34226137032E-01  0.40390662310E-01  0.00000000000E+00 0. -1.
<mgrwt>
<rscale>  1 0.66239358E+03</rscale>
<asrwt>0</asrwt>
<pdfrwt beam="1">  1        1 0.39901524E+00 0.66239358E+03</pdfrwt>
<pdfrwt beam="2">0</pdfrwt>
<totfact> 0.13483079E+00</totfact>
</mgrwt>
</event>
<event>
 6    1  0.4482121E-003  0.6495318E+03  0.7818608E-02  0.9807658E-01
          3   -1    0    0  502    0  0.00000000000E+00  0.00000000000E+00  0.10581545383E+03  0.10581545383E+03  0.00000000000E+00 0.  1.
         13   -1    0    0    0    0 -0.00000000000E+00 -0.00000000000E+00 -0.10000000000E+04  0.10000000000E+04  0.00000000000E+00 0.  1.
    9000005    2    1    2  501    0  0.89277002037E-01 -0.34845709922E-01 -0.89451968788E+03  0.11054668788E+04  0.64953178435E+03 0.  0.
         13    1    3    3    0    0  0.19695986328E+03 -0.93442483089E+02 -0.37530991893E+02  0.22120863623E+03  0.00000000000E+00 0.  1.
          1    1    3    3  501    0 -0.19687058628E+03  0.93407637379E+02 -0.85698869598E+03  0.88425824254E+03  0.00000000000E+00 0.  1.
         21    1    1    2  502  501 -0.89277002037E-01  0.34845709922E-01  0.33514170282E+00  0.34857505298E+00  0.00000000000E+00 0. -1.
<mgrwt>
<rscale>  1 0.64953179E+03</rscale>
<asrwt>0</asrwt>
<pdfrwt beam="1">  1        3 0.38478428E+00 0.64953179E+03</pdfrwt>
<pdfrwt beam="2">0</pdfrwt>
<totfact> 0.71221601E-02</totfact>
</mgrwt>
</event>
<event>
 6    1  0.4482121E-003  0.6378935E+03  0.7818608E-02  0.9829765E-01
          1   -1    0    0  502    0  0.00000000000E+00  0.00000000000E+00  0.10173848546E+03  0.10173848546E+03  0.00000000000E+00 0.  1.
         13   -1    0    0    0    0 -0.00000000000E+00 -0.00000000000E+00 -0.10000000000E+04  0.10000000000E+04  0.00000000000E+00 0.  1.
    9000005    2    1    2  501    0 -0.24169175471E-02  0.23429837527E-02 -0.89827268279E+03  0.11017268210E+04  0.63789354547E+03 0.  0.
         13    1    3    3    0    0  0.11964159100E+03  0.22225316306E+03 -0.78589096112E+03  0.82543030085E+03  0.00000000000E+00 0.  1.
          3    1    3    3  501    0 -0.11964400791E+03 -0.22225082008E+03 -0.11238172167E+03  0.27629652010E+03  0.00000000000E+00 0.  1.
         21    1    1    2  502  501  0.24169175471E-02 -0.23429837527E-02  0.11168248880E-01  0.11664512263E-01  0.00000000000E+00 0.  1.
<mgrwt>
<rscale>  1 0.63789355E+03</rscale>
<asrwt>0</asrwt>
<pdfrwt beam="1">  1        1 0.36995891E+00 0.63789355E+03</pdfrwt>
<pdfrwt beam="2">0</pdfrwt>
<totfact> 0.18208063E+00</totfact>
</mgrwt>
</event>
<event>
 6    1  0.4482121E-003  0.6387600E+03  0.7818608E-02  0.9828102E-01
          1   -1    0    0  502    0  0.00000000000E+00  0.00000000000E+00  0.10200390209E+03  0.10200390209E+03  0.00000000000E+00 0.  1.
         13   -1    0    0    0    0 -0.00000000000E+00 -0.00000000000E+00 -0.10000000000E+04  0.10000000000E+04  0.00000000000E+00 0.  1.
    9000005    2    1    2  501    0  0.20281448201E-05 -0.29240396088E-04 -0.89799641201E+03  0.11020035866E+04  0.63876000890E+03 0.  0.
         13    1    3    3    0    0 -0.14642718477E+03  0.35517203531E+02  0.36832717754E+02  0.15510977172E+03  0.00000000000E+00 0.  1.
          3    1    3    3  501    0  0.14642718680E+03 -0.35517232771E+02 -0.93482912976E+03  0.94689381491E+03  0.00000000000E+00 0.  1.
         21    1    1    2  502  501 -0.20281448171E-05  0.29240396085E-04  0.31410023639E-03  0.31546485167E-03  0.00000000000E+00 0. -1.
<mgrwt>
<rscale>  1 0.63876001E+03</rscale>
<asrwt>0</asrwt>
<pdfrwt beam="1">  1        1 0.37092406E+00 0.63876001E+03</pdfrwt>
<pdfrwt beam="2">0</pdfrwt>
<totfact> 0.18028332E+00</totfact>
</mgrwt>
</event>
<event>
 6    1  0.4482121E-003  0.6338213E+03  0.7818608E-02  0.9837620E-01
          1   -1    0    0  502    0  0.00000000000E+00  0.00000000000E+00  0.10043244204E+03  0.10043244204E+03  0.00000000000E+00 0.  1.
         13   -1    0    0    0    0 -0.00000000000E+00 -0.00000000000E+00 -0.10000000000E+04  0.10000000000E+04  0.00000000000E+00 0.  1.
    9000005    2    1    2  501    0  0.25216290283E-05 -0.61914885237E-05 -0.89956762472E+03  0.11004323749E+04  0.63382134738E+03 0.  0.
         13    1    3    3    0    0  0.27665913785E+03  0.14426685046E+03 -0.54612533008E+03  0.62897224012E+03  0.00000000000E+00 0.  1.
          3    1    3    3  501    0 -0.27665913533E+03 -0.14426685665E+03 -0.35344229464E+03  0.47146013483E+03  0.00000000000E+00 0.  1.
         21    1    1    2  502  501 -0.25216290101E-05  0.61914885333E-05  0.66753582353E-04  0.67087509270E-04  0.00000000000E+00 0.  1.
<mgrwt>
<rscale>  1 0.63382135E+03</rscale>
<asrwt>0</asrwt>
<pdfrwt beam="1">  1        1 0.36520965E+00 0.63382135E+03</pdfrwt>
<pdfrwt beam="2">0</pdfrwt>
<totfact> 0.19117065E+00</totfact>
</mgrwt>
</event>
<event>
 6    1  0.4482121E-003  0.6338303E+03  0.7818608E-02  0.9837603E-01
          1   -1    0    0  502    0  0.00000000000E+00  0.00000000000E+00  0.10043546891E+03  0.10043546891E+03  0.00000000000E+00 0.  1.
         13   -1    0    0    0    0 -0.00000000000E+00 -0.00000000000E+00 -0.10000000000E+04  0.10000000000E+04  0.00000000000E+00 0.  1.
    9000005    2    1    2  501    0  0.18733981335E-04 -0.29394074659E-05 -0.89956477751E+03  0.11004352218E+04  0.63383033090E+03 0.  0.
         13    1    3    3    0    0 -0.26989054170E+03  0.13496510811E+03 -0.61791946452E+03  0.68766339843E+03  0.00000000000E+00 0.  1.
          1    1    3    3  501    0  0.26989056043E+03 -0.13496511105E+03 -0.28164531299E+03  0.41277182333E+03  0.00000000000E+00 0.  1.
         21    1    1    2  502  501 -0.18733981331E-04  0.29394074782E-05  0.24641488859E-03  0.24714347956E-03  0.00000000000E+00 0. -1.
<mgrwt>
<rscale>  1 0.63383033E+03</rscale>
<asrwt>0</asrwt>
<pdfrwt beam="1">  1        1 0.36522066E+00 0.63383033E+03</pdfrwt>
<pdfrwt beam="2">0</pdfrwt>
<totfact> 0.19114911E+00</totfact>
</mgrwt>
</event>
<event>
 6    1  0.4482121E-003  0.6529538E+03  0.7818608E-02  0.9801252E-01
          3   -1    0    0  502    0  0.00000000000E+00  0.00000000000E+00  0.10662456374E+03  0.10662456374E+03  0.00000000000E+00 0.  1.
         13   -1    0    0    0    0 -0.00000000000E+00 -0.00000000000E+00 -0.10000000000E+04  0.10000000000E+04  0.00000000000E+00 0.  1.
    9000005    2    1    2  501    0 -0.61203122991E-01 -0.12098447526E-01 -0.89338153402E+03  0.11065618790E+04  0.65295376774E+03 0.  0.
         13    1    3    3    0    0 -0.32120827367E+03 -0.57017436791E+02 -0.42388562397E+03  0.53488761940E+03  0.00000000000E+00 0.  1.
          3    1    3    3  501    0  0.32114707055E+03  0.57005338343E+02 -0.46949591006E+03  0.57167425959E+03  0.00000000000E+00 0.  1.
         21    1    1    2  502  501  0.61203122991E-01  0.12098447526E-01  0.60977584871E-02  0.62684745791E-01  0.00000000000E+00 0.  1.
<mgrwt>
<rscale>  1 0.65295377E+03</rscale>
<asrwt>0</asrwt>
<pdfrwt beam="1">  1        3 0.38772650E+00 0.65295377E+03</pdfrwt>
<pdfrwt beam="2">0</pdfrwt>
<totfact> 0.68684690E-02</totfact>
</mgrwt>
</event>
<event>
 6    1  0.4482121E-003  0.6444004E+03  0.7818608E-02  0.9817344E-01
          1   -1    0    0  502    0  0.00000000000E+00  0.00000000000E+00  0.10381316815E+03  0.10381316815E+03  0.00000000000E+00 0.  1.
         13   -1    0    0    0    0 -0.00000000000E+00 -0.00000000000E+00 -0.10000000000E+04  0.10000000000E+04  0.00000000000E+00 0.  1.
    9000005    2    1    2  501    0  0.81968239158E-04 -0.69901530310E-04 -0.89618702876E+03  0.11038129437E+04  0.64440036014E+03 0.  0.
         13    1    3    3    0    0 -0.24296781417E+03 -0.20962485965E+03 -0.49765051362E+03  0.59214185311E+03  0.00000000000E+00 0.  1.
          1    1    3    3  501    0  0.24296789614E+03  0.20962478975E+03 -0.39853651515E+03  0.51167109058E+03  0.00000000000E+00 0.  1.
         21    1    1    2  502  501 -0.81968239155E-04  0.69901530333E-04  0.19691727408E-03  0.22445807850E-03  0.00000000000E+00 0. -1.
<mgrwt>
<rscale>  1 0.64440036E+03</rscale>
<asrwt>0</asrwt>
<pdfrwt beam="1">  1        1 0.37750323E+00 0.64440036E+03</pdfrwt>
<pdfrwt beam="2">0</pdfrwt>
<totfact> 0.16848366E+00</totfact>
</mgrwt>
</event>
<event>
 6    1  0.4482121E-003  0.5629633E+03  0.7818608E-02  0.9985372E-01
          1   -1    0    0  502    0  0.00000000000E+00  0.00000000000E+00  0.79541030876E+02  0.79541030876E+02  0.00000000000E+00 0.  1.
         13   -1    0    0    0    0 -0.00000000000E+00 -0.00000000000E+00 -0.10000000000E+04  0.10000000000E+04  0.00000000000E+00 0.  1.
    9000005    2    1    2  501    0  0.81988085560E+00  0.48921019112E-01 -0.92006007003E+03  0.10786279491E+04  0.56296273897E+03 0.  0.
         13    1    3    3    0    0  0.21021696437E+03  0.11013893479E+03 -0.75167149877E+03  0.78824602704E+03  0.00000000000E+00 0.  1.
          3    1    3    3  501    0 -0.20939708352E+03 -0.11009001377E+03 -0.16838857126E+03  0.29038192204E+03  0.00000000000E+00 0.  1.
         21    1    1    2  502  501 -0.81988085560E+00 -0.48921019112E-01 -0.39889909130E+00  0.91308179729E+00  0.00000000000E+00 0. -1.
<mgrwt>
<rscale>  1 0.56296334E+03</rscale>
<asrwt>0</asrwt>
<pdfrwt beam="1">  1        1 0.28924072E+00 0.56296334E+03</pdfrwt>
<pdfrwt beam="2">0</pdfrwt>
<totfact> 0.41329066E+00</totfact>
</mgrwt>
</event>
<event>
 6    1  0.4482121E-003  0.6239672E+03  0.7818608E-02  0.9856893E-01
          1   -1    0    0  502    0  0.00000000000E+00  0.00000000000E+00  0.97333800969E+02  0.97333800969E+02  0.00000000000E+00 0.  1.
         13   -1    0    0    0    0 -0.00000000000E+00 -0.00000000000E+00 -0.10000000000E+04  0.10000000000E+04  0.00000000000E+00 0.  1.
    9000005    2    1    2  501    0 -0.32953811342E-05  0.44773488241E-05 -0.90266622140E+03  0.10973337779E+04  0.62396723704E+03 0.  0.
         13    1    3    3    0    0  0.38500273370E+02  0.22585231019E+03 -0.82374250072E+03  0.85501066927E+03  0.00000000000E+00 0.  1.
          1    1    3    3  501    0 -0.38500276665E+02 -0.22585230572E+03 -0.78923720680E+02  0.24232310865E+03  0.00000000000E+00 0.  1.
         21    1    1    2  502  501  0.32953811340E-05 -0.44773488369E-05  0.22369735304E-04  0.23050189739E-04  0.00000000000E+00 0.  1.
<mgrwt>
<rscale>  1 0.62396724E+03</rscale>
<asrwt>0</asrwt>
<pdfrwt beam="1">  1        1 0.35394184E+00 0.62396724E+03</pdfrwt>
<pdfrwt beam="2">0</pdfrwt>
<totfact> 0.21451906E+00</totfact>
</mgrwt>
</event>
<event>
 6    1  0.4482121E-003  0.6738230E+03  0.7818608E-02  0.9763076E-01
          3   -1    0    0  502    0  0.00000000000E+00  0.00000000000E+00  0.11411738605E+03  0.11411738605E+03  0.00000000000E+00 0.  1.
         13   -1    0    0    0    0 -0.00000000000E+00 -0.00000000000E+00 -0.10000000000E+04  0.10000000000E+04  0.00000000000E+00 0.  1.
    9000005    2    1    2  501    0 -0.43551844738E+00 -0.42202723599E-01 -0.88640165003E+03  0.11134385224E+04  0.67382287477E+03 0.  0.
         13    1    3    3    0    0 -0.17351763355E+03  0.28879477753E+03 -0.45632159358E+03  0.56722146420E+03  0.00000000000E+00 0.  1.
          3    1    3    3  501    0  0.17308211510E+03 -0.28883698025E+03 -0.43008005645E+03  0.54621705821E+03  0.00000000000E+00 0.  1.
         21    1    1    2  502  501  0.43551844738E+00  0.42202723599E-01  0.51903607551E+00  0.67886363547E+00  0.00000000000E+00 0.  1.
<mgrwt>
<rscale>  1 0.67382302E+03</rscale>
<asrwt>0</asrwt>
<pdfrwt beam="1">  1        3 0.41497319E+00 0.67382302E+03</pdfrwt>
<pdfrwt beam="2">0</pdfrwt>
<totfact> 0.49280170E-02</totfact>
</mgrwt>
</event>
<event>
 6    1  0.4482121E-003  0.6860361E+03  0.7818608E-02  0.9741415E-01
          1   -1    0    0  502    0  0.00000000000E+00  0.00000000000E+00  0.16970281589E+03  0.16970281589E+03  0.00000000000E+00 0.  1.
         13   -1    0    0    0    0 -0.00000000000E+00 -0.00000000000E+00 -0.10000000000E+04  0.10000000000E+04  0.00000000000E+00 0.  1.
    9000005    2    1    2  501    0  0.31097625384E+02  0.23156022901E+02 -0.87412375270E+03  0.11111875887E+04  0.68493960209E+03 0.  0.
         13    1    3    3    0    0 -0.11041093710E+03  0.32380638371E+03 -0.34133365040E+03  0.48326991429E+03  0.00000000000E+00 0.  1.
          1    1    3    3  501    0  0.14150856249E+03 -0.30065036081E+03 -0.53279010229E+03  0.62791767439E+03  0.00000000000E+00 0.  1.
         21    1    1    2  502  501 -0.31097625384E+02 -0.23156022901E+02  0.43826568590E+02  0.58515227210E+02  0.00000000000E+00 0. -1.
<mgrwt>
<rscale>  1 0.68603609E+03</rscale>
<asrwt>0</asrwt>
<pdfrwt beam="1">  1        1 0.61710245E+00 0.68603609E+03</pdfrwt>
<pdfrwt beam="2">0</pdfrwt>
<totfact> 0.11389106E-01</totfact>
</mgrwt>
</event>
<event>
 6    1  0.4482121E-003  0.6568741E+03  0.7818608E-02  0.9793965E-01
          1   -1    0    0  502    0  0.00000000000E+00  0.00000000000E+00  0.10788917748E+03  0.10788917748E+03  0.00000000000E+00 0.  1.
         13   -1    0    0    0    0 -0.00000000000E+00 -0.00000000000E+00 -0.10000000000E+04  0.10000000000E+04  0.00000000000E+00 0.  1.
    9000005    2    1    2  501    0 -0.27617650588E-02 -0.96066875700E-03 -0.89212897803E+03  0.11078707880E+04  0.65687408950E+03 0.  0.
         13    1    3    3    0    0 -0.30527266573E+03 -0.12101788776E+03 -0.43607113860E+03  0.54588896995E+03  0.00000000000E+00 0.  1.
          3    1    3    3  501    0  0.30526990396E+03  0.12101692710E+03 -0.45605783944E+03  0.56198181805E+03  0.00000000000E+00 0.  1.
         21    1    1    2  502  501  0.27617650588E-02  0.96066875700E-03  0.18155509730E-01  0.18389474279E-01  0.00000000000E+00 0.  1.
<mgrwt>
<rscale>  1 0.65687409E+03</rscale>
<asrwt>0</asrwt>
<pdfrwt beam="1">  1        1 0.39232511E+00 0.65687409E+03</pdfrwt>
<pdfrwt beam="2">0</pdfrwt>
<totfact> 0.14454292E+00</totfact>
</mgrwt>
</event>
<event>
 6    1  0.4482121E-003  0.6537651E+03  0.7818608E-02  0.9799740E-01
          1   -1    0    0  502    0  0.00000000000E+00  0.00000000000E+00  0.11739463237E+03  0.11739463237E+03  0.00000000000E+00 0.  1.
         13   -1    0    0    0    0 -0.00000000000E+00 -0.00000000000E+00 -0.10000000000E+04  0.10000000000E+04  0.00000000000E+00 0.  1.
    9000005    2    1    2  501    0 -0.28085121370E+00  0.12267728712E+01 -0.89310621758E+03  0.11068186360E+04  0.65376386663E+03 0.  0.
         13    1    3    3    0    0 -0.12301803323E+03 -0.24061395278E+03 -0.75616371111E+03  0.80300191081E+03  0.00000000000E+00 0.  1.
          1    1    3    3  501    0  0.12273718202E+03  0.24184072566E+03 -0.13694250647E+03  0.30381672521E+03  0.00000000000E+00 0.  1.
         21    1    1    2  502  501  0.28085121370E+00 -0.12267728712E+01  0.10500849955E+02  0.10575996353E+02  0.00000000000E+00 0. -1.
<mgrwt>
<rscale>  1 0.65376508E+03</rscale>
<asrwt>0</asrwt>
<pdfrwt beam="1">  1        1 0.42689047E+00 0.65376508E+03</pdfrwt>
<pdfrwt beam="2">0</pdfrwt>
<totfact> 0.10122443E+00</totfact>
</mgrwt>
</event>
<event>
 6    1  0.4482121E-003  0.6598654E+03  0.7818608E-02  0.9788441E-01
          1   -1    0    0  502    0  0.00000000000E+00  0.00000000000E+00  0.10888201699E+03  0.10888201699E+03  0.00000000000E+00 0.  1.
         13   -1    0    0    0    0 -0.00000000000E+00 -0.00000000000E+00 -0.10000000000E+04  0.10000000000E+04  0.00000000000E+00 0.  1.
    9000005    2    1    2  501    0 -0.51709826931E-03  0.72513118866E-04 -0.89114439990E+03  0.11088555949E+04  0.65986543245E+03 0.  0.
         13    1    3    3    0    0  0.26660031932E+03  0.90272805812E+02 -0.73483268649E+03  0.78689515621E+03  0.00000000000E+00 0.  1.
          1    1    3    3  501    0 -0.26660083642E+03 -0.90272733299E+02 -0.15631171342E+03  0.32196043873E+03  0.00000000000E+00 0.  1.
         21    1    1    2  502  501  0.51709826933E-03 -0.72513118867E-04  0.26416895338E-01  0.26422055334E-01  0.00000000000E+00 0. -1.
<mgrwt>
<rscale>  1 0.65986543E+03</rscale>
<asrwt>0</asrwt>
<pdfrwt beam="1">  1        1 0.39593544E+00 0.65986543E+03</pdfrwt>
<pdfrwt beam="2">0</pdfrwt>
<totfact> 0.13922211E+00</totfact>
</mgrwt>
</event>
<event>
 6    1  0.4482121E-003  0.6428312E+03  0.7818608E-02  0.9820325E-01
          1   -1    0    0  502    0  0.00000000000E+00  0.00000000000E+00  0.10330801135E+03  0.10330801135E+03  0.00000000000E+00 0.  1.
         13   -1    0    0    0    0 -0.00000000000E+00 -0.00000000000E+00 -0.10000000000E+04  0.10000000000E+04  0.00000000000E+00 0.  1.
    9000005    2    1    2  501    0 -0.61538790071E-06  0.48355418016E-05 -0.89669200313E+03  0.11033079961E+04  0.64283122646E+03 0.  0.
         13    1    3    3    0    0 -0.12265494497E-01 -0.30820660648E+03 -0.60486780851E+03  0.67886403513E+03  0.00000000000E+00 0.  1.
          1    1    3    3  501    0  0.12264879110E-01  0.30820661131E+03 -0.29182419462E+03  0.42444396094E+03  0.00000000000E+00 0.  1.
         21    1    1    2  502  501  0.61538790071E-06 -0.48355418030E-05  0.14477674206E-04  0.15276263195E-04  0.00000000000E+00 0. -1.
<mgrwt>
<rscale>  1 0.64283123E+03</rscale>
<asrwt>0</asrwt>
<pdfrwt beam="1">  1        1 0.37566629E+00 0.64283123E+03</pdfrwt>
<pdfrwt beam="2">0</pdfrwt>
<totfact> 0.17170163E+00</totfact>
</mgrwt>
</event>
<event>
 6    1  0.4482121E-003  0.6419860E+03  0.7818608E-02  0.9821934E-01
          1   -1    0    0  502    0  0.00000000000E+00  0.00000000000E+00  0.10304619010E+03  0.10304619010E+03  0.00000000000E+00 0.  1.
         13   -1    0    0    0    0 -0.00000000000E+00 -0.00000000000E+00 -0.10000000000E+04  0.10000000000E+04  0.00000000000E+00 0.  1.
    9000005    2    1    2  501    0  0.12625537402E-02 -0.84673744407E-03 -0.89696342471E+03  0.11030364559E+04  0.64198601050E+03 0.  0.
         13    1    3    3    0    0 -0.16155251017E+03 -0.67436759986E+01 -0.92491644583E+03  0.93894362049E+03  0.00000000000E+00 0.  1.
          3    1    3    3  501    0  0.16155377272E+03  0.67428292612E+01  0.27953021118E+02  0.16409283536E+03  0.00000000000E+00 0.  1.
         21    1    1    2  502  501 -0.12625537402E-02  0.84673744407E-03  0.96148085644E-02  0.97342462460E-02  0.00000000000E+00 0. -1.
<mgrwt>
<rscale>  1 0.64198601E+03</rscale>
<asrwt>0</asrwt>
<pdfrwt beam="1">  1        1 0.37471421E+00 0.64198601E+03</pdfrwt>
<pdfrwt beam="2">0</pdfrwt>
<totfact> 0.17339351E+00</totfact>
</mgrwt>
</event>
<event>
 6    1  0.4482121E-003  0.6613205E+03  0.7818608E-02  0.9785766E-01
          1   -1    0    0  502    0  0.00000000000E+00  0.00000000000E+00  0.10935180834E+03  0.10935180834E+03  0.00000000000E+00 0.  1.
         13   -1    0    0    0    0 -0.00000000000E+00 -0.00000000000E+00 -0.10000000000E+04  0.10000000000E+04  0.00000000000E+00 0.  1.
    9000005    2    1    2  501    0  0.22274527395E-01 -0.62473463656E-02 -0.89065362494E+03  0.11093280448E+04  0.66132052055E+03 0.  0.
         13    1    3    3    0    0  0.18466883148E+03  0.15565438762E+03 -0.82418487046E+03  0.85884315588E+03  0.00000000000E+00 0.  1.
          1    1    3    3  501    0 -0.18464655695E+03 -0.15566063497E+03 -0.66468754477E+02  0.25048488895E+03  0.00000000000E+00 0.  1.
         21    1    1    2  502  501 -0.22274527395E-01  0.62473463656E-02  0.54332722957E-02  0.23763508898E-01  0.00000000000E+00 0. -1.
<mgrwt>
<rscale>  1 0.66132052E+03</rscale>
<asrwt>0</asrwt>
<pdfrwt beam="1">  1        1 0.39764378E+00 0.66132052E+03</pdfrwt>
<pdfrwt beam="2">0</pdfrwt>
<totfact> 0.13676851E+00</totfact>
</mgrwt>
</event>
<event>
 6    1  0.4482121E-003  0.6425079E+03  0.7818608E-02  0.9820940E-01
          1   -1    0    0  502    0  0.00000000000E+00  0.00000000000E+00  0.10320527536E+03  0.10320527536E+03  0.00000000000E+00 0.  1.
         13   -1    0    0    0    0 -0.00000000000E+00 -0.00000000000E+00 -0.10000000000E+04  0.10000000000E+04  0.00000000000E+00 0.  1.
    9000005    2    1    2  501    0 -0.44609867950E-03 -0.26798301271E-02 -0.89679386262E+03  0.11032024252E+04  0.64250786677E+03 0.  0.
         13    1    3    3    0    0  0.10092866531E+03  0.23307053865E+03 -0.11063883663E+03  0.27703686332E+03  0.00000000000E+00 0.  1.
          1    1    3    3  501    0 -0.10092911141E+03 -0.23307321848E+03 -0.78615502599E+03  0.82616556185E+03  0.00000000000E+00 0.  1.
         21    1    1    2  502  501  0.44609867949E-03  0.26798301270E-02 -0.86202352080E-03  0.28501891327E-02  0.00000000000E+00 0. -1.
<mgrwt>
<rscale>  1 0.64250787E+03</rscale>
<asrwt>0</asrwt>
<pdfrwt beam="1">  1        1 0.37529270E+00 0.64250787E+03</pdfrwt>
<pdfrwt beam="2">0</pdfrwt>
<totfact> 0.17236335E+00</totfact>
</mgrwt>
</event>
<event>
 6    1  0.4482121E-003  0.6425890E+03  0.7818608E-02  0.9820786E-01
          1   -1    0    0  502    0  0.00000000000E+00  0.00000000000E+00  0.10323086918E+03  0.10323086918E+03  0.00000000000E+00 0.  1.
         13   -1    0    0    0    0 -0.00000000000E+00 -0.00000000000E+00 -0.10000000000E+04  0.10000000000E+04  0.00000000000E+00 0.  1.
    9000005    2    1    2  501    0  0.91777176357E-03  0.49085679441E-03 -0.89676940961E+03  0.11032297917E+04  0.64258898160E+03 0.  0.
         13    1    3    3    0    0  0.14289832007E+03 -0.21949059644E+03 -0.12887450629E+03  0.29189842442E+03  0.00000000000E+00 0.  1.
          1    1    3    3  501    0 -0.14289740230E+03  0.21949108730E+03 -0.76789490332E+03  0.81133136728E+03  0.00000000000E+00 0.  1.
         21    1    1    2  502  501 -0.91777176359E-03 -0.49085679440E-03  0.27879757012E-03  0.10774847970E-02  0.00000000000E+00 0. -1.
<mgrwt>
<rscale>  1 0.64258898E+03</rscale>
<asrwt>0</asrwt>
<pdfrwt beam="1">  1        1 0.37538577E+00 0.64258898E+03</pdfrwt>
<pdfrwt beam="2">0</pdfrwt>
<totfact> 0.17219826E+00</totfact>
</mgrwt>
</event>
<event>
 6    1  0.4482121E-003  0.6083386E+03  0.7818608E-02  0.9888255E-01
          1   -1    0    0  502    0  0.00000000000E+00  0.00000000000E+00  0.92541165780E+02  0.92541165780E+02  0.00000000000E+00 0.  1.
         13   -1    0    0    0    0 -0.00000000000E+00 -0.00000000000E+00 -0.10000000000E+04  0.10000000000E+04  0.00000000000E+00 0.  1.
    9000005    2    1    2  501    0 -0.48194508038E-02 -0.21156030910E-01 -0.90747509688E+03  0.10925140498E+04  0.60833863677E+03 0.  0.
         13    1    3    3    0    0 -0.28899969022E+03 -0.61435794033E+02 -0.32391068490E+03  0.43842138352E+03  0.00000000000E+00 0.  1.
          1    1    3    3  501    0  0.28899487077E+03  0.61414638002E+02 -0.58356441198E+03  0.65409266624E+03  0.00000000000E+00 0.  1.
         21    1    1    2  502  501  0.48194508038E-02  0.21156030910E-01  0.16262659045E-01  0.27116025319E-01  0.00000000000E+00 0.  1.
<mgrwt>
<rscale>  1 0.60833864E+03</rscale>
<asrwt>0</asrwt>
<pdfrwt beam="1">  1        1 0.33651404E+00 0.60833864E+03</pdfrwt>
<pdfrwt beam="2">0</pdfrwt>
<totfact> 0.25615179E+00</totfact>
</mgrwt>
</event>
<event>
 6    1  0.4482121E-003  0.6500320E+03  0.7818608E-02  0.9806719E-01
          1   -1    0    0  502    0  0.00000000000E+00  0.00000000000E+00  0.10564176334E+03  0.10564176334E+03  0.00000000000E+00 0.  1.
         13   -1    0    0    0    0 -0.00000000000E+00 -0.00000000000E+00 -0.10000000000E+04  0.10000000000E+04  0.00000000000E+00 0.  1.
    9000005    2    1    2  501    0 -0.24896095261E-02 -0.19375868335E-01 -0.89433217880E+03  0.11056091960E+04  0.65003203597E+03 0.  0.
         13    1    3    3    0    0 -0.86061455445E+02 -0.17001558179E+03 -0.89500872471E+03  0.91506966373E+03  0.00000000000E+00 0.  1.
          3    1    3    3  501    0  0.86058965836E+02  0.16999620593E+03  0.67654591355E+00  0.19053953223E+03  0.00000000000E+00 0.  1.
         21    1    1    2  502  501  0.24896095261E-02  0.19375868335E-01 -0.26057857884E-01  0.32567382253E-01  0.00000000000E+00 0. -1.
<mgrwt>
<rscale>  1 0.65003204E+03</rscale>
<asrwt>0</asrwt>
<pdfrwt beam="1">  1        1 0.38415268E+00 0.65003204E+03</pdfrwt>
<pdfrwt beam="2">0</pdfrwt>
<totfact> 0.15731016E+00</totfact>
</mgrwt>
</event>
<event>
 6    1  0.4482121E-003  0.6536158E+03  0.7818608E-02  0.9800018E-01
          1   -1    0    0  502    0  0.00000000000E+00  0.00000000000E+00  0.10692767318E+03  0.10692767318E+03  0.00000000000E+00 0.  1.
         13   -1    0    0    0    0 -0.00000000000E+00 -0.00000000000E+00 -0.10000000000E+04  0.10000000000E+04  0.00000000000E+00 0.  1.
    9000005    2    1    2  501    0  0.29267924131E-02  0.17540853865E-02 -0.89319658212E+03  0.11068033710E+04  0.65361576465E+03 0.  0.
         13    1    3    3    0    0  0.22474233097E+03 -0.16699064031E+03 -0.73201231722E+03  0.78373274899E+03  0.00000000000E+00 0.  1.
          3    1    3    3  501    0 -0.22473940418E+03  0.16699239440E+03 -0.16118426491E+03  0.32307062205E+03  0.00000000000E+00 0.  1.
         21    1    1    2  502  501 -0.29267924131E-02 -0.17540853865E-02  0.12425530393E+00  0.12430214594E+00  0.00000000000E+00 0.  1.
<mgrwt>
<rscale>  1 0.65361576E+03</rscale>
<asrwt>0</asrwt>
<pdfrwt beam="1">  1        1 0.38882872E+00 0.65361576E+03</pdfrwt>
<pdfrwt beam="2">0</pdfrwt>
<totfact> 0.14988902E+00</totfact>
</mgrwt>
</event>
<event>
 6    1  0.4482121E-003  0.6413870E+03  0.7818608E-02  0.9823076E-01
          1   -1    0    0  502    0  0.00000000000E+00  0.00000000000E+00  0.10284436358E+03  0.10284436358E+03  0.00000000000E+00 0.  1.
         13   -1    0    0    0    0 -0.00000000000E+00 -0.00000000000E+00 -0.10000000000E+04  0.10000000000E+04  0.00000000000E+00 0.  1.
    9000005    2    1    2  501    0 -0.65224168623E-04  0.51505235825E-04 -0.89715562933E+03  0.11028442802E+04  0.64138699945E+03 0.  0.
         13    1    3    3    0    0  0.99189717126E+02 -0.10358744256E+01 -0.97295808294E+03  0.97800158700E+03  0.00000000000E+00 0.  1.
          1    1    3    3  501    0 -0.99189782350E+02  0.10359259309E+01  0.75802453609E+02  0.12484269317E+03  0.00000000000E+00 0.  1.
         21    1    1    2  502  501  0.65224168616E-04 -0.51505235826E-04 -0.70874398875E-05  0.83409911242E-04  0.00000000000E+00 0.  1.
<mgrwt>
<rscale>  1 0.64138700E+03</rscale>
<asrwt>0</asrwt>
<pdfrwt beam="1">  1        1 0.37398029E+00 0.64138700E+03</pdfrwt>
<pdfrwt beam="2">0</pdfrwt>
<totfact> 0.17470688E+00</totfact>
</mgrwt>
</event>
<event>
 6    1  0.4482121E-003  0.6218489E+03  0.7818608E-02  0.9861085E-01
          1   -1    0    0  502    0  0.00000000000E+00  0.00000000000E+00  0.96674750893E+02  0.96674750893E+02  0.00000000000E+00 0.  1.
         13   -1    0    0    0    0 -0.00000000000E+00 -0.00000000000E+00 -0.10000000000E+04  0.10000000000E+04  0.00000000000E+00 0.  1.
    9000005    2    1    2  501    0  0.79205910311E-05  0.22830650749E-04 -0.90332598651E+03  0.10966740131E+04  0.62184889893E+03 0.  0.
         13    1    3    3    0    0  0.13144565714E+03  0.15707202793E+03 -0.39106606021E+02  0.20851596911E+03  0.00000000000E+00 0.  1.
          3    1    3    3  501    0 -0.13144564922E+03 -0.15707200510E+03 -0.86421938049E+03  0.88815804399E+03  0.00000000000E+00 0.  1.
         21    1    1    2  502  501 -0.79205910304E-05 -0.22830650763E-04  0.73740217480E-03  0.73779803590E-03  0.00000000000E+00 0. -1.
<mgrwt>
<rscale>  1 0.62184890E+03</rscale>
<asrwt>0</asrwt>
<pdfrwt beam="1">  1        1 0.35154529E+00 0.62184890E+03</pdfrwt>
<pdfrwt beam="2">0</pdfrwt>
<totfact> 0.21982830E+00</totfact>
</mgrwt>
</event>
<event>
 6    1  0.4482121E-003  0.6435911E+03  0.7818608E-02  0.9818880E-01
          1   -1    0    0  502    0  0.00000000000E+00  0.00000000000E+00  0.10355413817E+03  0.10355413817E+03  0.00000000000E+00 0.  1.
         13   -1    0    0    0    0 -0.00000000000E+00 -0.00000000000E+00 -0.10000000000E+04  0.10000000000E+04  0.00000000000E+00 0.  1.
    9000005    2    1    2  501    0 -0.14587722194E-03 -0.16528591253E-02 -0.89644716801E+03  0.11035520265E+04  0.64359113579E+03 0.  0.
         13    1    3    3    0    0  0.21846108306E+03 -0.23556595506E+03 -0.47966340273E+03  0.57731580952E+03  0.00000000000E+00 0.  1.
          1    1    3    3  501    0 -0.21846122894E+03  0.23556430220E+03 -0.41678376528E+03  0.52623621694E+03  0.00000000000E+00 0.  1.
         21    1    1    2  502  501  0.14587722194E-03  0.16528591253E-02  0.13061847416E-02  0.21117154238E-02  0.00000000000E+00 0. -1.
<mgrwt>
<rscale>  1 0.64359114E+03</rscale>
<asrwt>0</asrwt>
<pdfrwt beam="1">  1        1 0.37656130E+00 0.64359114E+03</pdfrwt>
<pdfrwt beam="2">0</pdfrwt>
<totfact> 0.17012663E+00</totfact>
</mgrwt>
</event>
<event>
 6    1  0.4482121E-003  0.6533801E+03  0.7818608E-02  0.9800457E-01
          1   -1    0    0  502    0  0.00000000000E+00  0.00000000000E+00  0.10675845256E+03  0.10675845256E+03  0.00000000000E+00 0.  1.
         13   -1    0    0    0    0 -0.00000000000E+00 -0.00000000000E+00 -0.10000000000E+04  0.10000000000E+04  0.00000000000E+00 0.  1.
    9000005    2    1    2  501    0  0.27323594290E-02 -0.18088287772E-01 -0.89327068148E+03  0.11067240513E+04  0.65338014591E+03 0.  0.
         13    1    3    3    0    0 -0.68342530860E+02  0.31860776911E+03 -0.40730374325E+03  0.52161091949E+03  0.00000000000E+00 0.  1.
          1    1    3    3  501    0  0.68345263219E+02 -0.31862585740E+03 -0.48596693823E+03  0.58511313184E+03  0.00000000000E+00 0.  1.
         21    1    1    2  502  501 -0.27323594290E-02  0.18088287772E-01  0.29134041102E-01  0.34401225175E-01  0.00000000000E+00 0. -1.
<mgrwt>
<rscale>  1 0.65338015E+03</rscale>
<asrwt>0</asrwt>
<pdfrwt beam="1">  1        1 0.38821337E+00 0.65338015E+03</pdfrwt>
<pdfrwt beam="2">0</pdfrwt>
<totfact> 0.15083967E+00</totfact>
</mgrwt>
</event>
<event>
 6    1  0.4482121E-003  0.6521176E+03  0.7818608E-02  0.9802814E-01
          1   -1    0    0  502    0  0.00000000000E+00  0.00000000000E+00  0.10632132383E+03  0.10632132383E+03  0.00000000000E+00 0.  1.
         13   -1    0    0    0    0 -0.00000000000E+00 -0.00000000000E+00 -0.10000000000E+04  0.10000000000E+04  0.00000000000E+00 0.  1.
    9000005    2    1    2  501    0  0.72221000269E-03  0.24973221881E-02 -0.89368539278E+03  0.11063141217E+04  0.65211759256E+03 0.  0.
         13    1    3    3    0    0 -0.16112084511E+03 -0.23748549635E+03 -0.70941093554E+03  0.76526019311E+03  0.00000000000E+00 0.  1.
          3    1    3    3  501    0  0.16112156732E+03  0.23748799367E+03 -0.18427445725E+03  0.34105392856E+03  0.00000000000E+00 0.  1.
         21    1    1    2  502  501 -0.72221000271E-03 -0.24973221882E-02  0.67166120442E-02  0.72021582009E-02  0.00000000000E+00 0.  1.
<mgrwt>
<rscale>  1 0.65211759E+03</rscale>
<asrwt>0</asrwt>
<pdfrwt beam="1">  1        1 0.38662381E+00 0.65211759E+03</pdfrwt>
<pdfrwt beam="2">0</pdfrwt>
<totfact> 0.15334049E+00</totfact>
</mgrwt>
</event>
<event>
 6    1  0.4482121E-003  0.6342200E+03  0.7818608E-02  0.9836848E-01
          1   -1    0    0  502    0  0.00000000000E+00  0.00000000000E+00  0.10055920481E+03  0.10055920481E+03  0.00000000000E+00 0.  1.
         13   -1    0    0    0    0 -0.00000000000E+00 -0.00000000000E+00 -0.10000000000E+04  0.10000000000E+04  0.00000000000E+00 0.  1.
    9000005    2    1    2  501    0 -0.12982083233E-03 -0.71207095687E-04 -0.89944121862E+03  0.11005587562E+04  0.63422004871E+03 0.  0.
         13    1    3    3    0    0 -0.10206995823E+03 -0.17598464048E+03 -0.87182884839E+03  0.89525103236E+03  0.00000000000E+00 0.  1.
          1    1    3    3  501    0  0.10206982841E+03  0.17598456928E+03 -0.27612370229E+02  0.20530772388E+03  0.00000000000E+00 0.  1.
         21    1    1    2  502  501  0.12982083234E-03  0.71207095670E-04  0.42342789399E-03  0.44857003957E-03  0.00000000000E+00 0. -1.
<mgrwt>
<rscale>  1 0.63422005E+03</rscale>
<asrwt>0</asrwt>
<pdfrwt beam="1">  1        1 0.36567061E+00 0.63422005E+03</pdfrwt>
<pdfrwt beam="2">0</pdfrwt>
<totfact> 0.19026958E+00</totfact>
</mgrwt>
</event>
<event>
 6    1  0.4482121E-003  0.6642506E+03  0.7818608E-02  0.9780400E-01
          1   -1    0    0  502    0  0.00000000000E+00  0.00000000000E+00  0.11620046358E+03  0.11620046358E+03  0.00000000000E+00 0.  1.
         13   -1    0    0    0    0 -0.00000000000E+00 -0.00000000000E+00 -0.10000000000E+04  0.10000000000E+04  0.00000000000E+00 0.  1.
    9000005    2    1    2  501    0  0.54273621717E+01  0.27083924518E+01 -0.88790568441E+03  0.11088757041E+04  0.66422287759E+03 0.  0.
         13    1    3    3    0    0  0.12440415378E+03  0.29707438827E+03 -0.59661467468E+03  0.67799605876E+03  0.00000000000E+00 0.  1.
          1    1    3    3  501    0 -0.11897679161E+03 -0.29436599582E+03 -0.29129100973E+03  0.43087964536E+03  0.00000000000E+00 0.  1.
         21    1    1    2  502  501 -0.54273621717E+01 -0.27083924518E+01  0.41061479953E+01  0.73247594619E+01  0.00000000000E+00 0.  1.
<mgrwt>
<rscale>  1 0.66425057E+03</rscale>
<asrwt>0</asrwt>
<pdfrwt beam="1">  1        1 0.42254803E+00 0.66425057E+03</pdfrwt>
<pdfrwt beam="2">0</pdfrwt>
<totfact> 0.10569096E+00</totfact>
</mgrwt>
</event>
<event>
 6    1  0.4482121E-003  0.6514395E+03  0.7818608E-02  0.9804082E-01
          1   -1    0    0  502    0  0.00000000000E+00  0.00000000000E+00  0.10609641706E+03  0.10609641706E+03  0.00000000000E+00 0.  1.
         13   -1    0    0    0    0 -0.00000000000E+00 -0.00000000000E+00 -0.10000000000E+04  0.10000000000E+04  0.00000000000E+00 0.  1.
    9000005    2    1    2  501    0 -0.25098812347E-02  0.10915405308E-02 -0.89390593833E+03  0.11060928061E+04  0.65143953609E+03 0.  0.
         13    1    3    3    0    0  0.31714241953E+03 -0.35680744746E+02 -0.55751314661E+03  0.64239655856E+03  0.00000000000E+00 0.  1.
          3    1    3    3  501    0 -0.31714492941E+03  0.35681836287E+02 -0.33639279172E+03  0.46369624757E+03  0.00000000000E+00 0.  1.
         21    1    1    2  502  501  0.25098812347E-02 -0.10915405308E-02  0.23553899473E-02  0.36109315068E-02  0.00000000000E+00 0.  1.
<mgrwt>
<rscale>  1 0.65143954E+03</rscale>
<asrwt>0</asrwt>
<pdfrwt beam="1">  1        1 0.38580597E+00 0.65143954E+03</pdfrwt>
<pdfrwt beam="2">0</pdfrwt>
<totfact> 0.15464328E+00</totfact>
</mgrwt>
</event>
<event>
 6    1  0.4482121E-003  0.6473736E+03  0.7818608E-02  0.9811720E-01
          1   -1    0    0  502    0  0.00000000000E+00  0.00000000000E+00  0.10532322193E+03  0.10532322193E+03  0.00000000000E+00 0.  1.
         13   -1    0    0    0    0 -0.00000000000E+00 -0.00000000000E+00 -0.10000000000E+04  0.10000000000E+04  0.00000000000E+00 0.  1.
    9000005    2    1    2  501    0 -0.70363881694E+00  0.82627927731E+00 -0.89455830621E+03  0.11042314891E+04  0.64737272142E+03 0.  0.
         13    1    3    3    0    0  0.15632976185E+03 -0.21741319475E+03 -0.75546203900E+03  0.80151755069E+03  0.00000000000E+00 0.  1.
          3    1    3    3  501    0 -0.15703340066E+03  0.21823947403E+03 -0.13909626721E+03  0.30271393840E+03  0.00000000000E+00 0.  1.
         21    1    1    2  502  501  0.70363881694E+00 -0.82627927731E+00 -0.11847185689E+00  0.10917328472E+01  0.00000000000E+00 0.  1.
<mgrwt>
<rscale>  1 0.64737363E+03</rscale>
<asrwt>0</asrwt>
<pdfrwt beam="1">  1        1 0.38299434E+00 0.64737363E+03</pdfrwt>
<pdfrwt beam="2">0</pdfrwt>
<totfact> 0.15925373E+00</totfact>
</mgrwt>
</event>
<event>
 6    1  0.4482121E-003  0.6342907E+03  0.7818608E-02  0.9836711E-01
          1   -1    0    0  502    0  0.00000000000E+00  0.00000000000E+00  0.10898700879E+03  0.10898700879E+03  0.00000000000E+00 0.  1.
         13   -1    0    0    0    0 -0.00000000000E+00 -0.00000000000E+00 -0.10000000000E+04  0.10000000000E+04  0.00000000000E+00 0.  1.
    9000005    2    1    2  501    0 -0.82099298376E+00 -0.21958006468E+01 -0.89923858056E+03  0.11004338871E+04  0.63428638611E+03 0.  0.
         13    1    3    3    0    0  0.15887775395E+03 -0.27360023794E+03 -0.50413993043E+03  0.59519433831E+03  0.00000000000E+00 0.  1.
          1    1    3    3  501    0 -0.15969874694E+03  0.27140443729E+03 -0.39509865013E+03  0.50523954882E+03  0.00000000000E+00 0.  1.
         21    1    1    2  502  501  0.82099298376E+00  0.21958006468E+01  0.82255893563E+01  0.85531216651E+01  0.00000000000E+00 0.  1.
<mgrwt>
<rscale>  1 0.63429072E+03</rscale>
<asrwt>0</asrwt>
<pdfrwt beam="1">  1        1 0.39631723E+00 0.63429072E+03</pdfrwt>
<pdfrwt beam="2">0</pdfrwt>
<totfact> 0.13935309E+00</totfact>
</mgrwt>
</event>
<event>
 6    1  0.4482121E-003  0.6032722E+03  0.7818608E-02  0.9898640E-01
          1   -1    0    0  502    0  0.00000000000E+00  0.00000000000E+00  0.90991659456E+02  0.90991659456E+02  0.00000000000E+00 0.  1.
         13   -1    0    0    0    0 -0.00000000000E+00 -0.00000000000E+00 -0.10000000000E+04  0.10000000000E+04  0.00000000000E+00 0.  1.
    9000005    2    1    2  501    0 -0.80368648128E-04  0.21538915728E-03 -0.90901564625E+03  0.10909843501E+04  0.60327224958E+03 0.  0.
         13    1    3    3    0    0 -0.92849324821E+02 -0.49792718898E+02 -0.96564228890E+03  0.97137291607E+03  0.00000000000E+00 0.  1.
          1    1    3    3  501    0  0.92849244453E+02  0.49792934287E+02  0.56626642651E+02  0.11961143406E+03  0.00000000000E+00 0.  1.
         21    1    1    2  502  501  0.80368648123E-04 -0.21538915727E-03  0.73057034884E-02  0.73093197405E-02  0.00000000000E+00 0.  1.
<mgrwt>
<rscale>  1 0.60327225E+03</rscale>
<asrwt>0</asrwt>
<pdfrwt beam="1">  1        1 0.33087946E+00 0.60327225E+03</pdfrwt>
<pdfrwt beam="2">0</pdfrwt>
<totfact> 0.27121673E+00</totfact>
</mgrwt>
</event>
<event>
 6    1  0.4482121E-003  0.6663307E+03  0.7818608E-02  0.9776609E-01
          1   -1    0    0  502    0  0.00000000000E+00  0.00000000000E+00  0.11100537905E+03  0.11100537905E+03  0.00000000000E+00 0.  1.
         13   -1    0    0    0    0 -0.00000000000E+00 -0.00000000000E+00 -0.10000000000E+04  0.10000000000E+04  0.00000000000E+00 0.  1.
    9000005    2    1    2  501    0 -0.31433186350E-02  0.56284385852E-02 -0.88899891959E+03  0.11109976306E+04  0.66633074083E+03 0.  0.
         13    1    3    3    0    0 -0.13681686296E+03 -0.18171389986E+03 -0.85038353829E+03  0.88027890897E+03  0.00000000000E+00 0.  1.
          3    1    3    3  501    0  0.13681371964E+03  0.18171952830E+03 -0.38615381307E+02  0.23071872165E+03  0.00000000000E+00 0.  1.
         21    1    1    2  502  501  0.31433186350E-02 -0.56284385852E-02  0.42986442308E-02  0.77484266255E-02  0.00000000000E+00 0. -1.
<mgrwt>
<rscale>  1 0.66633074E+03</rscale>
<asrwt>0</asrwt>
<pdfrwt beam="1">  1        1 0.40365678E+00 0.66633074E+03</pdfrwt>
<pdfrwt beam="2">0</pdfrwt>
<totfact> 0.12845608E+00</totfact>
</mgrwt>
</event>
<event>
 6    1  0.4482121E-003  0.6369716E+03  0.7818608E-02  0.9831538E-01
          1   -1    0    0  502    0  0.00000000000E+00  0.00000000000E+00  0.10143319846E+03  0.10143319846E+03  0.00000000000E+00 0.  1.
         13   -1    0    0    0    0 -0.00000000000E+00 -0.00000000000E+00 -0.10000000000E+04  0.10000000000E+04  0.00000000000E+00 0.  1.
    9000005    2    1    2  501    0  0.61543929490E-05  0.72350600533E-06 -0.89856679695E+03  0.11014331908E+04  0.63697157324E+03 0.  0.
         13    1    3    3    0    0 -0.69445922362E+02  0.12471715159E+03  0.43017852434E+02  0.14908936804E+03  0.00000000000E+00 0.  1.
          1    1    3    3  501    0  0.69445928516E+02 -0.12471715087E+03 -0.94158464938E+03  0.95234382272E+03  0.00000000000E+00 0.  1.
         21    1    1    2  502  501 -0.61543929486E-05 -0.72350600354E-06 -0.45851483414E-05  0.77086703663E-05  0.00000000000E+00 0.  1.
<mgrwt>
<rscale>  1 0.63697157E+03</rscale>
<asrwt>0</asrwt>
<pdfrwt beam="1">  1        1 0.36884877E+00 0.63697157E+03</pdfrwt>
<pdfrwt beam="2">0</pdfrwt>
<totfact> 0.18416662E+00</totfact>
</mgrwt>
</event>
<event>
 6    1  0.4482121E-003  0.6450264E+03  0.7818608E-02  0.9816157E-01
          1   -1    0    0  502    0  0.00000000000E+00  0.00000000000E+00  0.10401478369E+03  0.10401478369E+03  0.00000000000E+00 0.  1.
         13   -1    0    0    0    0 -0.00000000000E+00 -0.00000000000E+00 -0.10000000000E+04  0.10000000000E+04  0.00000000000E+00 0.  1.
    9000005    2    1    2  501    0  0.92278770438E-05 -0.30685538547E-04 -0.89598523200E+03  0.11040147480E+04  0.64502637765E+03 0.  0.
         13    1    3    3    0    0 -0.42794738119E+02  0.31780623993E+03 -0.50685084514E+03  0.59977493693E+03  0.00000000000E+00 0.  1.
          1    1    3    3  501    0  0.42794747347E+02 -0.31780627062E+03 -0.38913438686E+03  0.50423981108E+03  0.00000000000E+00 0.  1.
         21    1    1    2  502  501 -0.92278770412E-05  0.30685538538E-04  0.15688924475E-04  0.35677700896E-04  0.00000000000E+00 0. -1.
<mgrwt>
<rscale>  1 0.64502638E+03</rscale>
<asrwt>0</asrwt>
<pdfrwt beam="1">  1        1 0.37823637E+00 0.64502638E+03</pdfrwt>
<pdfrwt beam="2">0</pdfrwt>
<totfact> 0.16721545E+00</totfact>
</mgrwt>
</event>
<event>
 6    1  0.4482121E-003  0.6435556E+03  0.7818608E-02  0.9818947E-01
          1   -1    0    0  502    0  0.00000000000E+00  0.00000000000E+00  0.10361342838E+03  0.10361342838E+03  0.00000000000E+00 0.  1.
         13   -1    0    0    0    0 -0.00000000000E+00 -0.00000000000E+00 -0.10000000000E+04  0.10000000000E+04  0.00000000000E+00 0.  1.
    9000005    2    1    2  501    0 -0.37880557869E-01  0.79492783476E-01 -0.89642830000E+03  0.11035159846E+04  0.64355561018E+03 0.  0.
         13    1    3    3    0    0  0.16843318620E+03 -0.11194709545E+03 -0.19077429877E+02  0.20313994862E+03  0.00000000000E+00 0.  1.
          1    1    3    3  501    0 -0.16847106676E+03  0.11202658823E+03 -0.87735087013E+03  0.90037603595E+03  0.00000000000E+00 0.  1.
         21    1    1    2  502  501  0.37880557869E-01 -0.79492783476E-01  0.41728385400E-01  0.97443816824E-01  0.00000000000E+00 0. -1.
<mgrwt>
<rscale>  1 0.64355562E+03</rscale>
<asrwt>0</asrwt>
<pdfrwt beam="1">  1        1 0.37677690E+00 0.64355562E+03</pdfrwt>
<pdfrwt beam="2">0</pdfrwt>
<totfact> 0.16975609E+00</totfact>
</mgrwt>
</event>
<event>
 6    1  0.4482121E-003  0.6339388E+03  0.7818608E-02  0.9837393E-01
          1   -1    0    0  502    0  0.00000000000E+00  0.00000000000E+00  0.10046963687E+03  0.10046963687E+03  0.00000000000E+00 0.  1.
         13   -1    0    0    0    0 -0.00000000000E+00 -0.00000000000E+00 -0.10000000000E+04  0.10000000000E+04  0.00000000000E+00 0.  1.
    9000005    2    1    2  501    0 -0.86632929133E-05  0.20038946673E-04 -0.89953040584E+03  0.11004695889E+04  0.63393877076E+03 0.  0.
         13    1    3    3    0    0  0.31401643218E+02 -0.30611884606E+03 -0.58168141482E+03  0.65806388707E+03  0.00000000000E+00 0.  1.
          3    1    3    3  501    0 -0.31401651882E+02  0.30611886610E+03 -0.31784899102E+03  0.44240570183E+03  0.00000000000E+00 0.  1.
         21    1    1    2  502  501  0.86632929109E-05 -0.20038946710E-04  0.42711822959E-04  0.47967820982E-04  0.00000000000E+00 0. -1.
<mgrwt>
<rscale>  1 0.63393877E+03</rscale>
<asrwt>0</asrwt>
<pdfrwt beam="1">  1        1 0.36534490E+00 0.63393877E+03</pdfrwt>
<pdfrwt beam="2">0</pdfrwt>
<totfact> 0.19090582E+00</totfact>
</mgrwt>
</event>
<event>
 6    1  0.4482121E-003  0.6300290E+03  0.7818608E-02  0.9844992E-01
          1   -1    0    0  502    0  0.00000000000E+00  0.00000000000E+00  0.99238325108E+02  0.99238325108E+02  0.00000000000E+00 0.  1.
         13   -1    0    0    0    0 -0.00000000000E+00 -0.00000000000E+00 -0.10000000000E+04  0.10000000000E+04  0.00000000000E+00 0.  1.
    9000005    2    1    2  501    0  0.50847690574E-05 -0.65319243333E-04 -0.90076585391E+03  0.10992341456E+04  0.63002903366E+03 0.  0.
         13    1    3    3    0    0  0.35900460487E+02 -0.31064359167E+03 -0.51672612516E+03  0.60398193063E+03  0.00000000000E+00 0.  1.
          1    1    3    3  501    0 -0.35900455403E+02  0.31064352635E+03 -0.38403972875E+03  0.49525221495E+03  0.00000000000E+00 0.  1.
         21    1    1    2  502  501 -0.50847690579E-05  0.65319243341E-04  0.41790133842E-02  0.41795269258E-02  0.00000000000E+00 0. -1.
<mgrwt>
<rscale>  1 0.63002903E+03</rscale>
<asrwt>0</asrwt>
<pdfrwt beam="1">  1        1 0.36086740E+00 0.63002903E+03</pdfrwt>
<pdfrwt beam="2">0</pdfrwt>
<totfact> 0.19986338E+00</totfact>
</mgrwt>
</event>
<event>
 6    1  0.4482121E-003  0.6422209E+03  0.7818608E-02  0.9821487E-01
          1   -1    0    0  502    0  0.00000000000E+00  0.00000000000E+00  0.10332364089E+03  0.10332364089E+03  0.00000000000E+00 0.  1.
         13   -1    0    0    0    0 -0.00000000000E+00 -0.00000000000E+00 -0.10000000000E+04  0.10000000000E+04  0.00000000000E+00 0.  1.
    9000005    2    1    2  501    0  0.28980798412E+00  0.80123510857E-01 -0.89676348343E+03  0.11030105928E+04  0.64222078155E+03 0.  0.
         13    1    3    3    0    0  0.13714459733E+03  0.19245392585E+03 -0.82211038577E+03  0.85540203445E+03  0.00000000000E+00 0.  1.
          1    1    3    3  501    0 -0.13685478934E+03 -0.19237380234E+03 -0.74653097665E+02  0.24760855838E+03  0.00000000000E+00 0.  1.
         21    1    1    2  502  501 -0.28980798412E+00 -0.80123510857E-01  0.87124324085E-01  0.31304806739E+00  0.00000000000E+00 0.  1.
<mgrwt>
<rscale>  1 0.64222085E+03</rscale>
<asrwt>0</asrwt>
<pdfrwt beam="1">  1        1 0.37572312E+00 0.64222085E+03</pdfrwt>
<pdfrwt beam="2">0</pdfrwt>
<totfact> 0.17162190E+00</totfact>
</mgrwt>
</event>
<event>
 6    1  0.4482121E-003  0.6449604E+03  0.7818608E-02  0.9816282E-01
          1   -1    0    0  502    0  0.00000000000E+00  0.00000000000E+00  0.10399354805E+03  0.10399354805E+03  0.00000000000E+00 0.  1.
         13   -1    0    0    0    0 -0.00000000000E+00 -0.00000000000E+00 -0.10000000000E+04  0.10000000000E+04  0.00000000000E+00 0.  1.
    9000005    2    1    2  501    0 -0.54030156775E-05 -0.98604453811E-05 -0.89600650493E+03  0.11039934939E+04  0.64496044660E+03 0.  0.
         13    1    3    3    0    0  0.24724790540E+03  0.55994263108E+02 -0.10683062366E+03  0.27509937545E+03  0.00000000000E+00 0.  1.
          3    1    3    3  501    0 -0.24724791080E+03 -0.55994272969E+02 -0.78917588127E+03  0.82889411844E+03  0.00000000000E+00 0.  1.
         21    1    1    2  502  501  0.54030156882E-05  0.98604453835E-05  0.52977423997E-04  0.54157440994E-04  0.00000000000E+00 0.  1.
<mgrwt>
<rscale>  1 0.64496045E+03</rscale>
<asrwt>0</asrwt>
<pdfrwt beam="1">  1        1 0.37815915E+00 0.64496045E+03</pdfrwt>
<pdfrwt beam="2">0</pdfrwt>
<totfact> 0.16734860E+00</totfact>
</mgrwt>
</event>
<event>
 6    1  0.4482121E-003  0.6623756E+03  0.7818608E-02  0.9783830E-01
          1   -1    0    0  502    0  0.00000000000E+00  0.00000000000E+00  0.11038148465E+03  0.11038148465E+03  0.00000000000E+00 0.  1.
         13   -1    0    0    0    0 -0.00000000000E+00 -0.00000000000E+00 -0.10000000000E+04  0.10000000000E+04  0.00000000000E+00 0.  1.
    9000005    2    1    2  501    0  0.71164248014E-02  0.16625805199E-01 -0.89031452133E+03  0.11096852438E+04  0.66237556793E+03 0.  0.
         13    1    3    3    0    0 -0.30850459854E+03 -0.78718605525E+02 -0.29242884711E+03  0.43230352393E+03  0.00000000000E+00 0.  1.
          3    1    3    3  501    0  0.30851171497E+03  0.78735231331E+02 -0.59788567422E+03  0.67738171983E+03  0.00000000000E+00 0.  1.
         21    1    1    2  502  501 -0.71164248015E-02 -0.16625805199E-01  0.69600597857E+00  0.69624089445E+00  0.00000000000E+00 0.  1.
<mgrwt>
<rscale>  1 0.66237557E+03</rscale>
<asrwt>0</asrwt>
<pdfrwt beam="1">  1        1 0.40138806E+00 0.66237557E+03</pdfrwt>
<pdfrwt beam="2">0</pdfrwt>
<totfact> 0.13158561E+00</totfact>
</mgrwt>
</event>
<event>
 6    1  0.4482121E-003  0.6499533E+03  0.7818608E-02  0.9806867E-01
          1   -1    0    0  502    0  0.00000000000E+00  0.00000000000E+00  0.10567396633E+03  0.10567396633E+03  0.00000000000E+00 0.  1.
         13   -1    0    0    0    0 -0.00000000000E+00 -0.00000000000E+00 -0.10000000000E+04  0.10000000000E+04  0.00000000000E+00 0.  1.
    9000005    2    1    2  501    0  0.10927604194E-04  0.25965906302E-02 -0.89439014166E+03  0.11056098058E+04  0.64995331918E+03 0.  0.
         13    1    3    3    0    0  0.15138987036E+03 -0.17185823124E+03 -0.55007522757E+02  0.23554186900E+03  0.00000000000E+00 0.  1.
          3    1    3    3  501    0 -0.15138985943E+03  0.17186082783E+03 -0.83938261890E+03  0.87006793677E+03  0.00000000000E+00 0.  1.
         21    1    1    2  502  501 -0.10927604186E-04 -0.25965906303E-02  0.64107987815E-01  0.64160552553E-01  0.00000000000E+00 0.  1.
<mgrwt>
<rscale>  1 0.64995332E+03</rscale>
<asrwt>0</asrwt>
<pdfrwt beam="1">  1        1 0.38426978E+00 0.64995332E+03</pdfrwt>
<pdfrwt beam="2">0</pdfrwt>
<totfact> 0.15712501E+00</totfact>
</mgrwt>
</event>
<event>
 6    1  0.4482121E-003  0.6472284E+03  0.7818608E-02  0.9811994E-01
          1   -1    0    0  502    0  0.00000000000E+00  0.00000000000E+00  0.10475257114E+03  0.10475257114E+03  0.00000000000E+00 0.  1.
         13   -1    0    0    0    0 -0.00000000000E+00 -0.00000000000E+00 -0.10000000000E+04  0.10000000000E+04  0.00000000000E+00 0.  1.
    9000005    2    1    2  501    0  0.81596627282E-01  0.17421312529E-02 -0.89513855207E+03  0.11046165006E+04  0.64722838262E+03 0.  0.
         13    1    3    3    0    0 -0.79353748835E+01  0.27746571640E+03 -0.16364371608E+03  0.32222579003E+03  0.00000000000E+00 0.  1.
          3    1    3    3  501    0  0.80169715108E+01 -0.27746397427E+03 -0.73149483600E+03  0.78239071054E+03  0.00000000000E+00 0.  1.
         21    1    1    2  502  501 -0.81596627282E-01 -0.17421312529E-02 -0.10887678488E+00  0.13607056585E+00  0.00000000000E+00 0.  1.
<mgrwt>
<rscale>  1 0.64722839E+03</rscale>
<asrwt>0</asrwt>
<pdfrwt beam="1">  1        1 0.38091924E+00 0.64722839E+03</pdfrwt>
<pdfrwt beam="2">0</pdfrwt>
<totfact> 0.16265434E+00</totfact>
</mgrwt>
</event>
<event>
 6    1  0.4482121E-003  0.4900371E+03  0.7818608E-02  0.1016413E+00
          1   -1    0    0  502    0  0.00000000000E+00  0.00000000000E+00  0.60036000287E+02  0.60036000287E+02  0.00000000000E+00 0.  1.
         13   -1    0    0    0    0 -0.00000000000E+00 -0.00000000000E+00 -0.10000000000E+04  0.10000000000E+04  0.00000000000E+00 0.  1.
    9000005    2    1    2  501    0 -0.71442947416E-04 -0.18358644851E-03 -0.93996589441E+03  0.10600340954E+04  0.49003714216E+03 0.  0.
         13    1    3    3    0    0 -0.14462538114E+03 -0.19683006166E+03 -0.51190472284E+03  0.56719046123E+03  0.00000000000E+00 0.  1.
          3    1    3    3  501    0  0.14462530970E+03  0.19682987807E+03 -0.42806117157E+03  0.49284363414E+03  0.00000000000E+00 0.  1.
         21    1    1    2  502  501  0.71442947391E-04  0.18358644851E-03  0.18947004920E-02  0.19049141800E-02  0.00000000000E+00 0. -1.
<mgrwt>
<rscale>  1 0.49003714E+03</rscale>
<asrwt>0</asrwt>
<pdfrwt beam="1">  1        1 0.21831319E+00 0.49003714E+03</pdfrwt>
<pdfrwt beam="2">0</pdfrwt>
<totfact> 0.85218062E+00</totfact>
</mgrwt>
</event>
<event>
 6    1  0.4482121E-003  0.6418377E+03  0.7818608E-02  0.9822217E-01
          1   -1    0    0  502    0  0.00000000000E+00  0.00000000000E+00  0.10298981663E+03  0.10298981663E+03  0.00000000000E+00 0.  1.
         13   -1    0    0    0    0 -0.00000000000E+00 -0.00000000000E+00 -0.10000000000E+04  0.10000000000E+04  0.00000000000E+00 0.  1.
    9000005    2    1    2  501    0  0.28541471124E-04 -0.77012749671E-05 -0.89701108915E+03  0.11029889104E+04  0.64183770715E+03 0.  0.
         13    1    3    3    0    0  0.19170569475E+03 -0.23999905859E+03 -0.28878531523E+03  0.42160120945E+03  0.00000000000E+00 0.  1.
          1    1    3    3  501    0 -0.19170566621E+03  0.23999905088E+03 -0.60822577393E+03  0.68138770091E+03  0.00000000000E+00 0.  1.
         21    1    1    2  502  501 -0.28541471128E-04  0.77012749681E-05  0.90577923091E-03  0.90626151875E-03  0.00000000000E+00 0.  1.
<mgrwt>
<rscale>  1 0.64183771E+03</rscale>
<asrwt>0</asrwt>
<pdfrwt beam="1">  1        1 0.37450921E+00 0.64183771E+03</pdfrwt>
<pdfrwt beam="2">0</pdfrwt>
<totfact> 0.17375880E+00</totfact>
</mgrwt>
</event>
<event>
 6    1  0.4482121E-003  0.6693981E+03  0.7818608E-02  0.9771046E-01
          1   -1    0    0  502    0  0.00000000000E+00  0.00000000000E+00  0.11202344101E+03  0.11202344101E+03  0.00000000000E+00 0.  1.
         13   -1    0    0    0    0 -0.00000000000E+00 -0.00000000000E+00 -0.10000000000E+04  0.10000000000E+04  0.00000000000E+00 0.  1.
    9000005    2    1    2  501    0  0.11772244193E-05  0.29642391723E-05 -0.88797656131E+03  0.11120234371E+04  0.66939805135E+03 0.  0.
         13    1    3    3    0    0  0.18207240261E+03 -0.78343095122E+02 -0.89201356511E+03  0.91377032163E+03  0.00000000000E+00 0.  1.
          1    1    3    3  501    0 -0.18207240143E+03  0.78343098086E+02  0.40370038032E+01  0.19825311544E+03  0.00000000000E+00 0.  1.
         21    1    1    2  502  501 -0.11772244347E-05 -0.29642391824E-05  0.23155690366E-05  0.39413742861E-05  0.00000000000E+00 0. -1.
<mgrwt>
<rscale>  1 0.66939805E+03</rscale>
<asrwt>0</asrwt>
<pdfrwt beam="1">  1        1 0.40735883E+00 0.66939805E+03</pdfrwt>
<pdfrwt beam="2">0</pdfrwt>
<totfact> 0.12357832E+00</totfact>
</mgrwt>
</event>
<event>
 6    1  0.4482121E-003  0.6280091E+03  0.7818608E-02  0.9848942E-01
          1   -1    0    0  502    0  0.00000000000E+00  0.00000000000E+00  0.11151815685E+03  0.11151815685E+03  0.00000000000E+00 0.  1.
         13   -1    0    0    0    0 -0.00000000000E+00 -0.00000000000E+00 -0.10000000000E+04  0.10000000000E+04  0.00000000000E+00 0.  1.
    9000005    2    1    2  501    0  0.50186928716E-01  0.22272617031E+00 -0.90140003856E+03  0.10985979441E+04  0.62800904538E+03 0.  0.
         13    1    3    3    0    0 -0.11459248644E+03 -0.22557909251E+03 -0.77561639204E+03  0.81584198993E+03  0.00000000000E+00 0.  1.
          1    1    3    3  501    0  0.11464267337E+03  0.22580181868E+03 -0.12578364652E+03  0.28275595415E+03  0.00000000000E+00 0.  1.
         21    1    1    2  502  501 -0.50186928716E-01 -0.22272617031E+00  0.12918195405E+02  0.12920212777E+02  0.00000000000E+00 0.  1.
<mgrwt>
<rscale>  1 0.62800909E+03</rscale>
<asrwt>0</asrwt>
<pdfrwt beam="1">  1        1 0.40552143E+00 0.62800909E+03</pdfrwt>
<pdfrwt beam="2">0</pdfrwt>
<totfact> 0.12694971E+00</totfact>
</mgrwt>
</event>
<event>
 6    1  0.4482121E-003  0.6608266E+03  0.7818608E-02  0.9786673E-01
          1   -1    0    0  502    0  0.00000000000E+00  0.00000000000E+00  0.10917871114E+03  0.10917871114E+03  0.00000000000E+00 0.  1.
         13   -1    0    0    0    0 -0.00000000000E+00 -0.00000000000E+00 -0.10000000000E+04  0.10000000000E+04  0.00000000000E+00 0.  1.
    9000005    2    1    2  501    0 -0.73324550846E-03 -0.97700068700E-04 -0.89082702872E+03  0.11091729238E+04  0.66082658830E+03 0.  0.
         13    1    3    3    0    0 -0.28618733715E+03 -0.58933653416E+02 -0.70433715569E+03  0.76253996376E+03  0.00000000000E+00 0.  1.
          3    1    3    3  501    0  0.28618660391E+03  0.58933555716E+02 -0.18648987304E+03  0.34663296005E+03  0.00000000000E+00 0.  1.
         21    1    1    2  502  501  0.73324550845E-03  0.97700068700E-04  0.57398635872E-02  0.57873334342E-02  0.00000000000E+00 0.  1.
<mgrwt>
<rscale>  1 0.66082659E+03</rscale>
<asrwt>0</asrwt>
<pdfrwt beam="1">  1        1 0.39701433E+00 0.66082659E+03</pdfrwt>
<pdfrwt beam="2">0</pdfrwt>
<totfact> 0.13766667E+00</totfact>
</mgrwt>
</event>
<event>
 6    1  0.4482121E-003  0.6380868E+03  0.7818608E-02  0.9829394E-01
          1   -1    0    0  502    0  0.00000000000E+00  0.00000000000E+00  0.10646073394E+03  0.10646073394E+03  0.00000000000E+00 0.  1.
         13   -1    0    0    0    0 -0.00000000000E+00 -0.00000000000E+00 -0.10000000000E+04  0.10000000000E+04  0.00000000000E+00 0.  1.
    9000005    2    1    2  501    0  0.14083388087E+02  0.17246126716E+01 -0.86887885319E+03  0.10780098627E+04  0.63792906075E+03 0.  0.
         13    1    3    3    0    0 -0.49233649411E+02 -0.27297990429E+02  0.95640673933E+02  0.11097869627E+03  0.00000000000E+00 0.  1.
          3    1    3    3  501    0  0.63317037499E+02  0.29022603100E+02 -0.96451952713E+03  0.96703116648E+03  0.00000000000E+00 0.  1.
         21    1    1    2  502  501 -0.14083388087E+02 -0.17246126716E+01 -0.24660412866E+02  0.28450871192E+02  0.00000000000E+00 0. -1.
<mgrwt>
<rscale>  1 0.63808683E+03</rscale>
<asrwt>0</asrwt>
<pdfrwt beam="1">  1        1 0.38713076E+00 0.63808683E+03</pdfrwt>
<pdfrwt beam="2">0</pdfrwt>
<totfact> 0.15295036E+00</totfact>
</mgrwt>
</event>
<event>
 6    1  0.4482121E-003  0.6593431E+03  0.7818608E-02  0.9789404E-01
          1   -1    0    0  502    0  0.00000000000E+00  0.00000000000E+00  0.10868334235E+03  0.10868334235E+03  0.00000000000E+00 0.  1.
         13   -1    0    0    0    0 -0.00000000000E+00 -0.00000000000E+00 -0.10000000000E+04  0.10000000000E+04  0.00000000000E+00 0.  1.
    9000005    2    1    2  501    0 -0.30615059643E-05 -0.42736519390E-06 -0.89131667556E+03  0.11086833242E+04  0.65934308002E+03 0.  0.
         13    1    3    3    0    0 -0.18936558380E+03 -0.13491363469E+03 -0.52668699484E+02  0.23840093342E+03  0.00000000000E+00 0.  1.
          3    1    3    3  501    0  0.18936558073E+03  0.13491363426E+03 -0.83864797608E+03  0.87028239075E+03  0.00000000000E+00 0.  1.
         21    1    1    2  502  501  0.30615059593E-05  0.42736519390E-06  0.17911012239E-04  0.18175803123E-04  0.00000000000E+00 0. -1.
<mgrwt>
<rscale>  1 0.65934308E+03</rscale>
<asrwt>0</asrwt>
<pdfrwt beam="1">  1        1 0.39521299E+00 0.65934308E+03</pdfrwt>
<pdfrwt beam="2">0</pdfrwt>
<totfact> 0.14026979E+00</totfact>
</mgrwt>
</event>
<event>
 6    1  0.4482121E-003  0.6424332E+03  0.7818608E-02  0.9821082E-01
          1   -1    0    0  502    0  0.00000000000E+00  0.00000000000E+00  0.10322433369E+03  0.10322433369E+03  0.00000000000E+00 0.  1.
         13   -1    0    0    0    0 -0.00000000000E+00 -0.00000000000E+00 -0.10000000000E+04  0.10000000000E+04  0.00000000000E+00 0.  1.
    9000005    2    1    2  501    0  0.51582586743E-03  0.60402587701E-03 -0.89681989327E+03  0.11031800996E+04  0.64243319590E+03 0.  0.
         13    1    3    3    0    0  0.29362541032E+02  0.27223696954E+03 -0.16001867604E+03  0.31714523972E+03  0.00000000000E+00 0.  1.
          3    1    3    3  501    0 -0.29362025206E+02 -0.27223636551E+03 -0.73680121723E+03  0.78603485988E+03  0.00000000000E+00 0.  1.
         21    1    1    2  502  501 -0.51582586743E-03 -0.60402587699E-03  0.44226956592E-01  0.44234088812E-01  0.00000000000E+00 0.  1.
<mgrwt>
<rscale>  1 0.64243320E+03</rscale>
<asrwt>0</asrwt>
<pdfrwt beam="1">  1        1 0.37536200E+00 0.64243320E+03</pdfrwt>
<pdfrwt beam="2">0</pdfrwt>
<totfact> 0.17224466E+00</totfact>
</mgrwt>
</event>
<event>
 6    1  0.4482121E-003  0.6552981E+03  0.7818608E-02  0.9796888E-01
          1   -1    0    0  502    0  0.00000000000E+00  0.00000000000E+00  0.11451681467E+03  0.11451681467E+03  0.00000000000E+00 0.  1.
         13   -1    0    0    0    0 -0.00000000000E+00 -0.00000000000E+00 -0.10000000000E+04  0.10000000000E+04  0.00000000000E+00 0.  1.
    9000005    2    1    2  501    0  0.50201625069E+00 -0.14820624302E+00 -0.89263550861E+03  0.11073453634E+04  0.65529789299E+03 0.  0.
         13    1    3    3    0    0 -0.10483703586E+03 -0.28149570544E+03 -0.66734825283E+03  0.73183627051E+03  0.00000000000E+00 0.  1.
          1    1    3    3  501    0  0.10533905211E+03  0.28134749920E+03 -0.22528725578E+03  0.37550909286E+03  0.00000000000E+00 0.  1.
         21    1    1    2  502  501 -0.50201625069E+00  0.14820624302E+00  0.71523232807E+01  0.71714512979E+01  0.00000000000E+00 0.  1.
<mgrwt>
<rscale>  1 0.65529810E+03</rscale>
<asrwt>0</asrwt>
<pdfrwt beam="1">  1        1 0.41642566E+00 0.65529810E+03</pdfrwt>
<pdfrwt beam="2">0</pdfrwt>
<totfact> 0.11282578E+00</totfact>
</mgrwt>
</event>
<event>
 6    1  0.4482121E-003  0.6348082E+03  0.7818608E-02  0.9835711E-01
          1   -1    0    0  502    0  0.00000000000E+00  0.00000000000E+00  0.10078823140E+03  0.10078823140E+03  0.00000000000E+00 0.  1.
         13   -1    0    0    0    0 -0.00000000000E+00 -0.00000000000E+00 -0.10000000000E+04  0.10000000000E+04  0.00000000000E+00 0.  1.
    9000005    2    1    2  501    0  0.96358575342E-02 -0.16200995118E-02 -0.89925402262E+03  0.11007448623E+04  0.63480820302E+03 0.  0.
         13    1    3    3    0    0  0.27443365183E+03 -0.59736052103E+02 -0.70603879167E+03  0.75985064356E+03  0.00000000000E+00 0.  1.
          3    1    3    3  501    0 -0.27442401597E+03  0.59734432003E+02 -0.19321523095E+03  0.34089421876E+03  0.00000000000E+00 0.  1.
         21    1    1    2  502  501 -0.96358575342E-02  0.16200995118E-02  0.42254024008E-01  0.43369079050E-01  0.00000000000E+00 0. -1.
<mgrwt>
<rscale>  1 0.63480820E+03</rscale>
<asrwt>0</asrwt>
<pdfrwt beam="1">  1        1 0.36650343E+00 0.63480820E+03</pdfrwt>
<pdfrwt beam="2">0</pdfrwt>
<totfact> 0.18865641E+00</totfact>
</mgrwt>
</event>
<event>
 6    1  0.4482121E-003  0.6513054E+03  0.7818608E-02  0.9804333E-01
          1   -1    0    0  502    0  0.00000000000E+00  0.00000000000E+00  0.10655679237E+03  0.10655679237E+03  0.00000000000E+00 0.  1.
         13   -1    0    0    0    0 -0.00000000000E+00 -0.00000000000E+00 -0.10000000000E+04  0.10000000000E+04  0.00000000000E+00 0.  1.
    9000005    2    1    2  501    0 -0.11852482667E+01 -0.20869643351E+00 -0.89298376118E+03  0.11052685926E+04  0.65130424201E+03 0.  0.
         13    1    3    3    0    0  0.22214987237E+03  0.23325533920E+03 -0.52131831105E+03  0.61280616878E+03  0.00000000000E+00 0.  1.
          1    1    3    3  501    0 -0.22333512063E+03 -0.23346403563E+03 -0.37166545013E+03  0.49246242381E+03  0.00000000000E+00 0.  1.
         21    1    1    2  502  501  0.11852482667E+01  0.20869643351E+00 -0.45944644342E+00  0.12881997863E+01  0.00000000000E+00 0.  1.
<mgrwt>
<rscale>  1 0.65130535E+03</rscale>
<asrwt>0</asrwt>
<pdfrwt beam="1">  1        1 0.38748006E+00 0.65130535E+03</pdfrwt>
<pdfrwt beam="2">0</pdfrwt>
<totfact> 0.15203053E+00</totfact>
</mgrwt>
</event>
<event>
 6    1  0.4482121E-003  0.6491655E+03  0.7818608E-02  0.9808346E-01
          1   -1    0    0  502    0  0.00000000000E+00  0.00000000000E+00  0.10566353629E+03  0.10566353629E+03  0.00000000000E+00 0.  1.
         13   -1    0    0    0    0 -0.00000000000E+00 -0.00000000000E+00 -0.10000000000E+04  0.10000000000E+04  0.00000000000E+00 0.  1.
    9000005    2    1    2  501    0  0.22694751312E-01 -0.39963860140E-01 -0.89464414467E+03  0.11053524419E+04  0.64916552053E+03 0.  0.
         13    1    3    3    0    0  0.25221299985E+03 -0.86959702084E+02 -0.13249900516E+03  0.29787476135E+03  0.00000000000E+00 0.  1.
          3    1    3    3  501    0 -0.25219030509E+03  0.86919738224E+02 -0.76214513951E+03  0.80747768053E+03  0.00000000000E+00 0.  1.
         21    1    1    2  502  501 -0.22694751312E-01  0.39963860140E-01  0.30768096587E+00  0.31109442074E+00  0.00000000000E+00 0. -1.
<mgrwt>
<rscale>  1 0.64916552E+03</rscale>
<asrwt>0</asrwt>
<pdfrwt beam="1">  1        1 0.38423185E+00 0.64916552E+03</pdfrwt>
<pdfrwt beam="2">0</pdfrwt>
<totfact> 0.15720855E+00</totfact>
</mgrwt>
</event>
<event>
 6    1  0.4482121E-003  0.6450332E+03  0.7818608E-02  0.9816144E-01
          1   -1    0    0  502    0  0.00000000000E+00  0.00000000000E+00  0.10401696559E+03  0.10401696559E+03  0.00000000000E+00 0.  1.
         13   -1    0    0    0    0 -0.00000000000E+00 -0.00000000000E+00 -0.10000000000E+04  0.10000000000E+04  0.00000000000E+00 0.  1.
    9000005    2    1    2  501    0  0.13739831417E-04  0.13523308382E-04 -0.89598302928E+03  0.11040169456E+04  0.64503319876E+03 0.  0.
         13    1    3    3    0    0 -0.15590535073E+03  0.25953579540E+03 -0.25777151919E+03  0.39763232211E+03  0.00000000000E+00 0.  1.
          3    1    3    3  501    0  0.15590536447E+03 -0.25953578188E+03 -0.63821151009E+03  0.70638462353E+03  0.00000000000E+00 0.  1.
         21    1    1    2  502  501 -0.13739831401E-04 -0.13523308376E-04 -0.51358195300E-05  0.19950926760E-04  0.00000000000E+00 0.  1.
<mgrwt>
<rscale>  1 0.64503320E+03</rscale>
<asrwt>0</asrwt>
<pdfrwt beam="1">  1        1 0.37824431E+00 0.64503320E+03</pdfrwt>
<pdfrwt beam="2">0</pdfrwt>
<totfact> 0.16720178E+00</totfact>
</mgrwt>
</event>
<event>
 6    1  0.4482121E-003  0.6542533E+03  0.7818608E-02  0.9798831E-01
          1   -1    0    0  502    0  0.00000000000E+00  0.00000000000E+00  0.10774348336E+03  0.10774348336E+03  0.00000000000E+00 0.  1.
         13   -1    0    0    0    0 -0.00000000000E+00 -0.00000000000E+00 -0.10000000000E+04  0.10000000000E+04  0.00000000000E+00 0.  1.
    9000005    2    1    2  501    0 -0.50904733312E-01  0.12923407177E+00 -0.89298084316E+03  0.11070059594E+04  0.65425330609E+03 0.  0.
         13    1    3    3    0    0  0.18515544041E+03 -0.26772160273E+03 -0.50018303671E+03  0.59677505301E+03  0.00000000000E+00 0.  1.
          1    1    3    3  501    0 -0.18520634514E+03  0.26785083680E+03 -0.39279780645E+03  0.51023090636E+03  0.00000000000E+00 0.  1.
         21    1    1    2  502  501  0.50904733312E-01 -0.12923407177E+00  0.72432652084E+00  0.73752399688E+00  0.00000000000E+00 0. -1.
<mgrwt>
<rscale>  1 0.65425332E+03</rscale>
<asrwt>0</asrwt>
<pdfrwt beam="1">  1        1 0.39179531E+00 0.65425332E+03</pdfrwt>
<pdfrwt beam="2">0</pdfrwt>
<totfact> 0.14539871E+00</totfact>
</mgrwt>
</event>
<event>
 6    1  0.4482121E-003  0.6554423E+03  0.7818608E-02  0.9796620E-01
          1   -1    0    0  502    0  0.00000000000E+00  0.00000000000E+00  0.10809872438E+03  0.10809872438E+03  0.00000000000E+00 0.  1.
         13   -1    0    0    0    0 -0.00000000000E+00 -0.00000000000E+00 -0.10000000000E+04  0.10000000000E+04  0.00000000000E+00 0.  1.
    9000005    2    1    2  501    0  0.91888270667E-01  0.53234293265E-01 -0.89259438340E+03  0.11073975284E+04  0.65544224876E+03 0.  0.
         13    1    3    3    0    0 -0.49424615288E+02 -0.24638136863E+03 -0.90906273485E+02  0.26722747232E+03  0.00000000000E+00 0.  1.
          3    1    3    3  501    0  0.49516503558E+02  0.24643460292E+03 -0.80168810991E+03  0.84017005613E+03  0.00000000000E+00 0.  1.
         21    1    1    2  502  501 -0.91888270667E-01 -0.53234293265E-01  0.69310777807E+00  0.70119593288E+00  0.00000000000E+00 0. -1.
<mgrwt>
<rscale>  1 0.65544226E+03</rscale>
<asrwt>0</asrwt>
<pdfrwt beam="1">  1        1 0.39308710E+00 0.65544226E+03</pdfrwt>
<pdfrwt beam="2">0</pdfrwt>
<totfact> 0.14345921E+00</totfact>
</mgrwt>
</event>
<event>
 6    1  0.4482121E-003  0.6461742E+03  0.7818608E-02  0.9813985E-01
          1   -1    0    0  502    0  0.00000000000E+00  0.00000000000E+00  0.10448222865E+03  0.10448222865E+03  0.00000000000E+00 0.  1.
         13   -1    0    0    0    0 -0.00000000000E+00 -0.00000000000E+00 -0.10000000000E+04  0.10000000000E+04  0.00000000000E+00 0.  1.
    9000005    2    1    2  501    0 -0.12341039285E-02 -0.59559320109E-03 -0.89561473397E+03  0.11043852563E+04  0.64617415821E+03 0.  0.
         13    1    3    3    0    0  0.26429145295E+03 -0.40505048345E+02 -0.13782825574E+03  0.30081100233E+03  0.00000000000E+00 0.  1.
          1    1    3    3  501    0 -0.26429268706E+03  0.40504452752E+02 -0.75778647823E+03  0.80357425401E+03  0.00000000000E+00 0.  1.
         21    1    1    2  502  501  0.12341039285E-02  0.59559320108E-03  0.96962622830E-01  0.96972305169E-01  0.00000000000E+00 0.  1.
<mgrwt>
<rscale>  1 0.64617416E+03</rscale>
<asrwt>0</asrwt>
<pdfrwt beam="1">  1        1 0.37993618E+00 0.64617416E+03</pdfrwt>
<pdfrwt beam="2">0</pdfrwt>
<totfact> 0.16431918E+00</totfact>
</mgrwt>
</event>
<event>
 6    1  0.4482121E-003  0.6525625E+03  0.7818608E-02  0.9801983E-01
          1   -1    0    0  502    0  0.00000000000E+00  0.00000000000E+00  0.10646000765E+03  0.10646000765E+03  0.00000000000E+00 0.  1.
         13   -1    0    0    0    0 -0.00000000000E+00 -0.00000000000E+00 -0.10000000000E+04  0.10000000000E+04  0.00000000000E+00 0.  1.
    9000005    2    1    2  501    0 -0.41438737242E-04  0.36659591231E-04 -0.89354052891E+03  0.11064594682E+04  0.65256254725E+03 0.  0.
         13    1    3    3    0    0  0.31442874392E+03 -0.58121572050E+02 -0.33667750562E+03  0.46432240408E+03  0.00000000000E+00 0.  1.
          1    1    3    3  501    0 -0.31442878536E+03  0.58121608709E+02 -0.55686302329E+03  0.64213706416E+03  0.00000000000E+00 0.  1.
         21    1    1    2  502  501  0.41438737281E-04 -0.36659591232E-04  0.53655972045E-03  0.53940469796E-03  0.00000000000E+00 0. -1.
<mgrwt>
<rscale>  1 0.65256255E+03</rscale>
<asrwt>0</asrwt>
<pdfrwt beam="1">  1        1 0.38712812E+00 0.65256255E+03</pdfrwt>
<pdfrwt beam="2">0</pdfrwt>
<totfact> 0.15254159E+00</totfact>
</mgrwt>
</event>
<event>
 6    1  0.4482121E-003  0.6442455E+03  0.7818608E-02  0.9817637E-01
          1   -1    0    0  502    0  0.00000000000E+00  0.00000000000E+00  0.10376306756E+03  0.10376306756E+03  0.00000000000E+00 0.  1.
         13   -1    0    0    0    0 -0.00000000000E+00 -0.00000000000E+00 -0.10000000000E+04  0.10000000000E+04  0.00000000000E+00 0.  1.
    9000005    2    1    2  501    0 -0.24980917601E-05 -0.26204179306E-05 -0.89623693758E+03  0.11037630613E+04  0.64424548671E+03 0.  0.
         13    1    3    3    0    0  0.28032187201E+03  0.71427684688E+02 -0.20533734132E+03  0.35474736053E+03  0.00000000000E+00 0.  1.
          1    1    3    3  501    0 -0.28032187450E+03 -0.71427687309E+02 -0.69089959626E+03  0.74901570074E+03  0.00000000000E+00 0.  1.
         21    1    1    2  502  501  0.24980917786E-05  0.26204179354E-05  0.51424997332E-05  0.62890664010E-05  0.00000000000E+00 0. -1.
<mgrwt>
<rscale>  1 0.64424549E+03</rscale>
<asrwt>0</asrwt>
<pdfrwt beam="1">  1        1 0.37732104E+00 0.64424549E+03</pdfrwt>
<pdfrwt beam="2">0</pdfrwt>
<totfact> 0.16880020E+00</totfact>
</mgrwt>
</event>
