<event>
 6    1  0.2922874E-003  0.6636985E+03  0.7818608E-02  0.9781409E-01
          1   -1    0    0  502    0  0.00000000000E+00  0.00000000000E+00  0.11012467201E+03  0.11012467201E+03  0.00000000000E+00 0.  1.
         13   -1    0    0    0    0 -0.00000000000E+00 -0.00000000000E+00 -0.10000000000E+04  0.10000000000E+04  0.00000000000E+00 0.  1.
    9000005    2    1    2  501    0 -0.52335636001E-03  0.30191901152E-03 -0.88987592635E+03  0.11101238217E+04  0.66369852729E+03 0.  0.
         13    1    3    3    0    0  0.70638515445E+02 -0.12549359156E+03  0.55135761477E+02  0.15420244350E+03  0.00000000000E+00 0.  1.
          1    1    3    3  501    0 -0.70639038802E+02  0.12549389348E+03 -0.94501168783E+03  0.95592137817E+03  0.00000000000E+00 0.  1.
         21    1    1    2  502  501  0.52335636000E-03 -0.30191901152E-03  0.59836023649E-03  0.85034812970E-03  0.00000000000E+00 0. -1.
<mgrwt>
<rscale>  1 0.66369853E+03</rscale>
<asrwt>0</asrwt>
<pdfrwt beam="1">  1        1 0.40045420E+00 0.66369853E+03</pdfrwt>
<pdfrwt beam="2">0</pdfrwt>
<totfact> 0.13282116E+00</totfact>
</mgrwt>
</event>
<event>
 6    1  0.2922874E-003  0.5712825E+03  0.7818608E-02  0.9966845E-01
          1   -1    0    0  502    0  0.00000000000E+00  0.00000000000E+00  0.81977176224E+02  0.81977176224E+02  0.00000000000E+00 0.  1.
         13   -1    0    0    0    0 -0.00000000000E+00 -0.00000000000E+00 -0.10000000000E+04  0.10000000000E+04  0.00000000000E+00 0.  1.
    9000005    2    1    2  501    0  0.23805993960E+00 -0.41404303117E-01 -0.91836787076E+03  0.10815559349E+04  0.57128244838E+03 0.  0.
         13    1    3    3    0    0 -0.90451971392E+02 -0.16952739872E+03 -0.85921163228E+03  0.88043496472E+03  0.00000000000E+00 0.  1.
          1    1    3    3  501    0  0.90690031332E+02  0.16948599442E+03 -0.59156238482E+02  0.20112097016E+03  0.00000000000E+00 0.  1.
         21    1    1    2  502  501 -0.23805993960E+00  0.41404303117E-01  0.34504698728E+00  0.42124134957E+00  0.00000000000E+00 0. -1.
<mgrwt>
<rscale>  1 0.57128250E+03</rscale>
<asrwt>0</asrwt>
<pdfrwt beam="1">  1        1 0.29809945E+00 0.57128250E+03</pdfrwt>
<pdfrwt beam="2">0</pdfrwt>
<totfact> 0.37793137E+00</totfact>
</mgrwt>
</event>
<event>
 6    1  0.2922874E-003  0.7666546E+03  0.7818608E-02  0.9609578E-01
          1   -1    0    0  502    0  0.00000000000E+00  0.00000000000E+00  0.14697175417E+03  0.14697175417E+03  0.00000000000E+00 0.  1.
         13   -1    0    0    0    0 -0.00000000000E+00 -0.00000000000E+00 -0.10000000000E+04  0.10000000000E+04  0.00000000000E+00 0.  1.
    9000005    2    1    2  501    0 -0.85620237155E-03 -0.68493020989E-03 -0.85306015580E+03  0.11469398254E+04  0.76665463777E+03 0.  0.
         13    1    3    3    0    0 -0.23510305539E+03  0.58324409989E+02  0.17931716787E+02  0.24289242458E+03  0.00000000000E+00 0.  1.
          3    1    3    3  501    0  0.23510219919E+03 -0.58325094919E+02 -0.87099187258E+03  0.90404740079E+03  0.00000000000E+00 0.  1.
         21    1    1    2  502  501  0.85620237155E-03  0.68493020989E-03  0.31909968606E-01  0.31928800609E-01  0.00000000000E+00 0.  1.
<mgrwt>
<rscale>  1 0.76665464E+03</rscale>
<asrwt>0</asrwt>
<pdfrwt beam="1">  1        1 0.53444387E+00 0.76665464E+03</pdfrwt>
<pdfrwt beam="2">0</pdfrwt>
<totfact> 0.30565361E-01</totfact>
</mgrwt>
</event>
<event>
 6    1  0.2922874E-003  0.6553633E+03  0.7818608E-02  0.9796767E-01
          1   -1    0    0  502    0  0.00000000000E+00  0.00000000000E+00  0.10738269037E+03  0.10738269037E+03  0.00000000000E+00 0.  1.
         13   -1    0    0    0    0 -0.00000000000E+00 -0.00000000000E+00 -0.10000000000E+04  0.10000000000E+04  0.00000000000E+00 0.  1.
    9000005    2    1    2  501    0 -0.34701671146E-03  0.50007646280E-03 -0.89262473315E+03  0.11073752419E+04  0.65536326737E+03 0.  0.
         13    1    3    3    0    0 -0.20168012700E+03 -0.54049490262E+02 -0.19583786161E+02  0.20971348480E+03  0.00000000000E+00 0.  1.
          3    1    3    3  501    0  0.20167977998E+03  0.54049990338E+02 -0.87304094699E+03  0.89766175714E+03  0.00000000000E+00 0.  1.
         21    1    1    2  502  501  0.34701671145E-03 -0.50007646280E-03  0.74235231868E-02  0.74484356460E-02  0.00000000000E+00 0.  1.
<mgrwt>
<rscale>  1 0.65536327E+03</rscale>
<asrwt>0</asrwt>
<pdfrwt beam="1">  1        1 0.39048333E+00 0.65536327E+03</pdfrwt>
<pdfrwt beam="2">0</pdfrwt>
<totfact> 0.14733050E+00</totfact>
</mgrwt>
</event>
<event>
 6    1  0.2922874E-003  0.6484244E+03  0.7818608E-02  0.9809740E-01
          1   -1    0    0  502    0  0.00000000000E+00  0.00000000000E+00  0.10511432870E+03  0.10511432870E+03  0.00000000000E+00 0.  1.
         13   -1    0    0    0    0 -0.00000000000E+00 -0.00000000000E+00 -0.10000000000E+04  0.10000000000E+04  0.00000000000E+00 0.  1.
    9000005    2    1    2  501    0 -0.10987625501E-04 -0.46626538506E-05 -0.89488644457E+03  0.11051135553E+04  0.64842441466E+03 0.  0.
         13    1    3    3    0    0  0.96297727325E+02  0.29483742125E+03 -0.60832821081E+03  0.68283641476E+03  0.00000000000E+00 0.  1.
          1    1    3    3  501    0 -0.96297738313E+02 -0.29483742591E+03 -0.28655823376E+03  0.42227714058E+03  0.00000000000E+00 0.  1.
         21    1    1    2  502  501  0.10987625507E-04  0.46626538682E-05  0.77327222185E-03  0.77336433674E-03  0.00000000000E+00 0. -1.
<mgrwt>
<rscale>  1 0.64842441E+03</rscale>
<asrwt>0</asrwt>
<pdfrwt beam="1">  1        1 0.38223473E+00 0.64842441E+03</pdfrwt>
<pdfrwt beam="2">0</pdfrwt>
<totfact> 0.16045797E+00</totfact>
</mgrwt>
</event>
<event>
 6    1  0.2922874E-003  0.6515432E+03  0.7818608E-02  0.9803888E-01
          1   -1    0    0  502    0  0.00000000000E+00  0.00000000000E+00  0.10690762689E+03  0.10690762689E+03  0.00000000000E+00 0.  1.
         13   -1    0    0    0    0 -0.00000000000E+00 -0.00000000000E+00 -0.10000000000E+04  0.10000000000E+04  0.00000000000E+00 0.  1.
    9000005    2    1    2  501    0 -0.12516233626E+01 -0.41507370269E-01 -0.89327291025E+03  0.11056423690E+04  0.65154200757E+03 0.  0.
         13    1    3    3    0    0 -0.24839475682E+03 -0.11154796312E+03 -0.75227597895E+03  0.80003878143E+03  0.00000000000E+00 0.  1.
          1    1    3    3  501    0  0.24714313346E+03  0.11150645575E+03 -0.14099693130E+03  0.30560358755E+03  0.00000000000E+00 0.  1.
         21    1    1    2  502  501  0.12516233626E+01  0.41507370269E-01  0.18053714098E+00  0.12652579037E+01  0.00000000000E+00 0.  1.
<mgrwt>
<rscale>  1 0.65154321E+03</rscale>
<asrwt>0</asrwt>
<pdfrwt beam="1">  1        1 0.38875583E+00 0.65154321E+03</pdfrwt>
<pdfrwt beam="2">0</pdfrwt>
<totfact> 0.15005825E+00</totfact>
</mgrwt>
</event>
<event>
 6    1  0.2922874E-003  0.6557229E+03  0.7818608E-02  0.9796099E-01
          3   -1    0    0  502    0  0.00000000000E+00  0.00000000000E+00  0.10749491089E+03  0.10749491089E+03  0.00000000000E+00 0.  1.
         13   -1    0    0    0    0 -0.00000000000E+00 -0.00000000000E+00 -0.10000000000E+04  0.10000000000E+04  0.00000000000E+00 0.  1.
    9000005    2    1    2  501    0 -0.31750298490E-04 -0.22783199370E-04 -0.89250685974E+03  0.11074931398E+04  0.65572292936E+03 0.  0.
         13    1    3    3    0    0  0.13221238457E+03  0.27247804436E+03 -0.23416397219E+03  0.38282785317E+03  0.00000000000E+00 0.  1.
          3    1    3    3  501    0 -0.13221241632E+03 -0.27247806714E+03 -0.65834288755E+03  0.72466528666E+03  0.00000000000E+00 0.  1.
         21    1    1    2  502  501  0.31750298493E-04  0.22783199348E-04  0.17706284285E-02  0.17710596228E-02  0.00000000000E+00 0.  1.
<mgrwt>
<rscale>  1 0.65572293E+03</rscale>
<asrwt>0</asrwt>
<pdfrwt beam="1">  1        3 0.39089141E+00 0.65572293E+03</pdfrwt>
<pdfrwt beam="2">0</pdfrwt>
<totfact> 0.66069603E-02</totfact>
</mgrwt>
</event>
<event>
 6    1  0.2922874E-003  0.6426664E+03  0.7818608E-02  0.9820638E-01
          1   -1    0    0  502    0  0.00000000000E+00  0.00000000000E+00  0.10327845394E+03  0.10327845394E+03  0.00000000000E+00 0.  1.
         13   -1    0    0    0    0 -0.00000000000E+00 -0.00000000000E+00 -0.10000000000E+04  0.10000000000E+04  0.00000000000E+00 0.  1.
    9000005    2    1    2  501    0 -0.13744953337E-02  0.17371683110E-02 -0.89674493047E+03  0.11032549648E+04  0.64266635756E+03 0.  0.
         13    1    3    3    0    0  0.17892293888E+03 -0.73723319699E+02 -0.79959250847E+01  0.19368138977E+03  0.00000000000E+00 0.  1.
          1    1    3    3  501    0 -0.17892431337E+03  0.73725056868E+02 -0.88874900538E+03  0.90957357508E+03  0.00000000000E+00 0.  1.
         21    1    1    2  502  501  0.13744953337E-02 -0.17371683110E-02  0.23384405751E-01  0.23489091585E-01  0.00000000000E+00 0. -1.
<mgrwt>
<rscale>  1 0.64266636E+03</rscale>
<asrwt>0</asrwt>
<pdfrwt beam="1">  1        1 0.37555881E+00 0.64266636E+03</pdfrwt>
<pdfrwt beam="2">0</pdfrwt>
<totfact> 0.17189402E+00</totfact>
</mgrwt>
</event>
<event>
 6    1  0.2922874E-003  0.6512564E+03  0.7818608E-02  0.9804424E-01
          1   -1    0    0  502    0  0.00000000000E+00  0.00000000000E+00  0.10603589435E+03  0.10603589435E+03  0.00000000000E+00 0.  1.
         13   -1    0    0    0    0 -0.00000000000E+00 -0.00000000000E+00 -0.10000000000E+04  0.10000000000E+04  0.00000000000E+00 0.  1.
    9000005    2    1    2  501    0 -0.44923443044E-02 -0.31263660520E-02 -0.89396133305E+03  0.11060297590E+04  0.65125644930E+03 0.  0.
         13    1    3    3    0    0 -0.39519107771E+02  0.24777083143E+03 -0.94480596527E+02  0.26810208486E+03  0.00000000000E+00 0.  1.
          1    1    3    3  501    0  0.39514615427E+02 -0.24777395780E+03 -0.79948073652E+03  0.83792767413E+03  0.00000000000E+00 0.  1.
         21    1    1    2  502  501  0.44923443044E-02  0.31263660520E-02 -0.27726005021E-02  0.61353594503E-02  0.00000000000E+00 0. -1.
<mgrwt>
<rscale>  1 0.65125645E+03</rscale>
<asrwt>0</asrwt>
<pdfrwt beam="1">  1        1 0.38558588E+00 0.65125645E+03</pdfrwt>
<pdfrwt beam="2">0</pdfrwt>
<totfact> 0.15499567E+00</totfact>
</mgrwt>
</event>
<event>
 6    1  0.2922874E-003  0.4809155E+03  0.7818608E-02  0.1018884E+00
          1   -1    0    0  502    0  0.00000000000E+00  0.00000000000E+00  0.57819939593E+02  0.57819939593E+02  0.00000000000E+00 0.  1.
         13   -1    0    0    0    0 -0.00000000000E+00 -0.00000000000E+00 -0.10000000000E+04  0.10000000000E+04  0.00000000000E+00 0.  1.
    9000005    2    1    2  501    0 -0.12747442781E-05 -0.25180629279E-05 -0.94218006955E+03  0.10578199300E+04  0.48091550287E+03 0.  0.
         13    1    3    3    0    0  0.16654577853E+03 -0.95776249618E+02 -0.78915304947E+03  0.81220263594E+03  0.00000000000E+00 0.  1.
          1    1    3    3  501    0 -0.16654577981E+03  0.95776247100E+02 -0.15302702008E+03  0.24561729409E+03  0.00000000000E+00 0.  1.
         21    1    1    2  502  501  0.12747442730E-05  0.25180629251E-05  0.91416097241E-05  0.95673738405E-05  0.00000000000E+00 0.  1.
<mgrwt>
<rscale>  1 0.48091550E+03</rscale>
<asrwt>0</asrwt>
<pdfrwt beam="1">  1        1 0.21025477E+00 0.48091550E+03</pdfrwt>
<pdfrwt beam="2">0</pdfrwt>
<totfact> 0.92707942E+00</totfact>
</mgrwt>
</event>
<event>
 6    1  0.2922874E-003  0.5894400E+03  0.7818608E-02  0.9927560E-01
          1   -1    0    0  502    0  0.00000000000E+00  0.00000000000E+00  0.11086071116E+03  0.11086071116E+03  0.00000000000E+00 0.  1.
         13   -1    0    0    0    0 -0.00000000000E+00 -0.00000000000E+00 -0.10000000000E+04  0.10000000000E+04  0.00000000000E+00 0.  1.
    9000005    2    1    2  501    0  0.43347068083E+00  0.20514644950E+01 -0.91309035452E+03  0.10868180418E+04  0.58943622560E+03 0.  0.
         13    1    3    3    0    0 -0.18779689401E+03  0.50263621330E+02 -0.48095691460E+02  0.20026807175E+03  0.00000000000E+00 0.  1.
          1    1    3    3  501    0  0.18823036469E+03 -0.48212156835E+02 -0.86499466306E+03  0.88654997004E+03  0.00000000000E+00 0.  1.
         21    1    1    2  502  501 -0.43347068083E+00 -0.20514644950E+01  0.23951065674E+02  0.24042669368E+02  0.00000000000E+00 0. -1.
<mgrwt>
<rscale>  1 0.58943995E+03</rscale>
<asrwt>0</asrwt>
<pdfrwt beam="1">  1        1 0.40313071E+00 0.58943995E+03</pdfrwt>
<pdfrwt beam="2">0</pdfrwt>
<totfact> 0.13113827E+00</totfact>
</mgrwt>
</event>
<event>
 6    1  0.2922874E-003  0.6556287E+03  0.7818608E-02  0.9796274E-01
          1   -1    0    0  502    0  0.00000000000E+00  0.00000000000E+00  0.10755199107E+03  0.10755199107E+03  0.00000000000E+00 0.  1.
         13   -1    0    0    0    0 -0.00000000000E+00 -0.00000000000E+00 -0.10000000000E+04  0.10000000000E+04  0.00000000000E+00 0.  1.
    9000005    2    1    2  501    0 -0.21832275452E-01  0.15888981252E+00 -0.89245010061E+03  0.11073915947E+04  0.65562865725E+03 0.  0.
         13    1    3    3    0    0  0.26126391268E+03  0.13010296643E+03 -0.19407430642E+03  0.35050028581E+03  0.00000000000E+00 0.  1.
          1    1    3    3  501    0 -0.26128574495E+03 -0.12994407662E+03 -0.69837579418E+03  0.75689130889E+03  0.00000000000E+00 0.  1.
         21    1    1    2  502  501  0.21832275451E-01 -0.15888981252E+00  0.20916777626E-02  0.16039637119E+00  0.00000000000E+00 0. -1.
<mgrwt>
<rscale>  1 0.65562868E+03</rscale>
<asrwt>0</asrwt>
<pdfrwt beam="1">  1        1 0.39109897E+00 0.65562868E+03</pdfrwt>
<pdfrwt beam="2">0</pdfrwt>
<totfact> 0.14639960E+00</totfact>
</mgrwt>
</event>
<event>
 6    1  0.2922874E-003  0.6333715E+03  0.7818608E-02  0.9838491E-01
          1   -1    0    0  502    0  0.00000000000E+00  0.00000000000E+00  0.10764161238E+03  0.10764161238E+03  0.00000000000E+00 0.  1.
         13   -1    0    0    0    0 -0.00000000000E+00 -0.00000000000E+00 -0.10000000000E+04  0.10000000000E+04  0.00000000000E+00 0.  1.
    9000005    2    1    2  501    0 -0.26996791524E+01 -0.58839160488E+01 -0.89811007599E+03  0.10989818979E+04  0.63333845185E+03 0.  0.
         13    1    3    3    0    0  0.21170807282E+03  0.12088316065E+03 -0.10103589657E+03  0.26389637932E+03  0.00000000000E+00 0.  1.
          3    1    3    3  501    0 -0.21440775197E+03 -0.12676707670E+03 -0.79707417943E+03  0.83508551858E+03  0.00000000000E+00 0.  1.
         21    1    1    2  502  501  0.26996791524E+01  0.58839160488E+01  0.57516883722E+01  0.86597144714E+01  0.00000000000E+00 0.  1.
<mgrwt>
<rscale>  1 0.63337154E+03</rscale>
<asrwt>0</asrwt>
<pdfrwt beam="1">  1        1 0.39142487E+00 0.63337154E+03</pdfrwt>
<pdfrwt beam="2">0</pdfrwt>
<totfact> 0.14652652E+00</totfact>
</mgrwt>
</event>
<event>
 6    1  0.2922874E-003  0.6448930E+03  0.7818608E-02  0.9816410E-01
          3   -1    0    0  502    0  0.00000000000E+00  0.00000000000E+00  0.11619953970E+03  0.11619953970E+03  0.00000000000E+00 0.  1.
         13   -1    0    0    0    0 -0.00000000000E+00 -0.00000000000E+00 -0.10000000000E+04  0.10000000000E+04  0.00000000000E+00 0.  1.
    9000005    2    1    2  501    0 -0.13481680322E+01 -0.10549431988E+01 -0.89596209283E+03  0.11039180183E+04  0.64489067977E+03 0.  0.
         13    1    3    3    0    0 -0.23770895913E+03  0.21781997385E+03 -0.43022990998E+03  0.53763264940E+03  0.00000000000E+00 0.  1.
          3    1    3    3  501    0  0.23636079109E+03 -0.21887491705E+03 -0.46573218285E+03  0.56628536889E+03  0.00000000000E+00 0.  1.
         21    1    1    2  502  501  0.13481680322E+01  0.10549431988E+01  0.12161632529E+02  0.12281521403E+02  0.00000000000E+00 0. -1.
<mgrwt>
<rscale>  1 0.64489295E+03</rscale>
<asrwt>0</asrwt>
<pdfrwt beam="1">  1        3 0.42254467E+00 0.64489295E+03</pdfrwt>
<pdfrwt beam="2">0</pdfrwt>
<totfact> 0.45249571E-02</totfact>
</mgrwt>
</event>
<event>
 6    1  0.2922874E-003  0.6423754E+03  0.7818608E-02  0.9821192E-01
          1   -1    0    0  502    0  0.00000000000E+00  0.00000000000E+00  0.10701912933E+03  0.10701912933E+03  0.00000000000E+00 0.  1.
         13   -1    0    0    0    0 -0.00000000000E+00 -0.00000000000E+00 -0.10000000000E+04  0.10000000000E+04  0.00000000000E+00 0.  1.
    9000005    2    1    2  501    0 -0.17952254195E+01  0.25229779805E+01 -0.89614112147E+03  0.11025947156E+04  0.64236797003E+03 0.  0.
         13    1    3    3    0    0  0.31066292538E+03 -0.18466051134E+02 -0.57634598868E+03  0.65500163886E+03  0.00000000000E+00 0.  1.
          1    1    3    3  501    0 -0.31245815080E+03  0.20989029115E+02 -0.31979513279E+03  0.44759307669E+03  0.00000000000E+00 0.  1.
         21    1    1    2  502  501  0.17952254195E+01 -0.25229779805E+01  0.31602507970E+01  0.44244137800E+01  0.00000000000E+00 0. -1.
<mgrwt>
<rscale>  1 0.64237543E+03</rscale>
<asrwt>0</asrwt>
<pdfrwt beam="1">  1        1 0.38916129E+00 0.64237543E+03</pdfrwt>
<pdfrwt beam="2">0</pdfrwt>
<totfact> 0.14969513E+00</totfact>
</mgrwt>
</event>
<event>
 6    1  0.2922874E-003  0.6622849E+03  0.7818608E-02  0.9783997E-01
          1   -1    0    0  502    0  0.00000000000E+00  0.00000000000E+00  0.10965533861E+03  0.10965533861E+03  0.00000000000E+00 0.  1.
         13   -1    0    0    0    0 -0.00000000000E+00 -0.00000000000E+00 -0.10000000000E+04  0.10000000000E+04  0.00000000000E+00 0.  1.
    9000005    2    1    2  501    0  0.34119816803E-05  0.11631981920E-05 -0.89034466634E+03  0.11096553325E+04  0.66228493266E+03 0.  0.
         13    1    3    3    0    0  0.15228328951E+03 -0.21589232401E+03 -0.77966616239E+03  0.82321262175E+03  0.00000000000E+00 0.  1.
          1    1    3    3  501    0 -0.15228328610E+03  0.21589232517E+03 -0.11067850395E+03  0.28644271073E+03  0.00000000000E+00 0.  1.
         21    1    1    2  502  501 -0.34119816822E-05 -0.11631981870E-05  0.49561631346E-05  0.61284746910E-05  0.00000000000E+00 0. -1.
<mgrwt>
<rscale>  1 0.66228493E+03</rscale>
<asrwt>0</asrwt>
<pdfrwt beam="1">  1        1 0.39874753E+00 0.66228493E+03</pdfrwt>
<pdfrwt beam="2">0</pdfrwt>
<totfact> 0.13520444E+00</totfact>
</mgrwt>
</event>
<event>
 6    1  0.2922874E-003  0.6487434E+03  0.7818608E-02  0.9809140E-01
          1   -1    0    0  502    0  0.00000000000E+00  0.00000000000E+00  0.10521706931E+03  0.10521706931E+03  0.00000000000E+00 0.  1.
         13   -1    0    0    0    0 -0.00000000000E+00 -0.00000000000E+00 -0.10000000000E+04  0.10000000000E+04  0.00000000000E+00 0.  1.
    9000005    2    1    2  501    0 -0.33727977922E-04 -0.15886808106E-03 -0.89478284612E+03  0.11052168862E+04  0.64874341911E+03 0.  0.
         13    1    3    3    0    0  0.21541932917E+03 -0.19300683444E+03 -0.69754000335E+03  0.75512858627E+03  0.00000000000E+00 0.  1.
          3    1    3    3  501    0 -0.21541936290E+03  0.19300667558E+03 -0.19724284277E+03  0.35008829994E+03  0.00000000000E+00 0.  1.
         21    1    1    2  502  501  0.33727977906E-04  0.15886808107E-03 -0.84563816956E-04  0.18310566025E-03  0.00000000000E+00 0.  1.
<mgrwt>
<rscale>  1 0.64874342E+03</rscale>
<asrwt>0</asrwt>
<pdfrwt beam="1">  1        1 0.38260833E+00 0.64874342E+03</pdfrwt>
<pdfrwt beam="2">0</pdfrwt>
<totfact> 0.15983997E+00</totfact>
</mgrwt>
</event>
<event>
 6    1  0.2922874E-003  0.6311642E+03  0.7818608E-02  0.9842780E-01
          1   -1    0    0  502    0  0.00000000000E+00  0.00000000000E+00  0.99592362530E+02  0.99592362530E+02  0.00000000000E+00 0.  1.
         13   -1    0    0    0    0 -0.00000000000E+00 -0.00000000000E+00 -0.10000000000E+04  0.10000000000E+04  0.00000000000E+00 0.  1.
    9000005    2    1    2  501    0  0.29123666650E-04 -0.32914064391E-04 -0.90040793868E+03  0.10995920581E+04  0.63116419279E+03 0.  0.
         13    1    3    3    0    0  0.12298070349E+03  0.10082581812E+03 -0.92508998404E+03  0.93865945774E+03  0.00000000000E+00 0.  1.
          1    1    3    3  501    0 -0.12298067437E+03 -0.10082585104E+03  0.24682045357E+02  0.16093260039E+03  0.00000000000E+00 0.  1.
         21    1    1    2  502  501 -0.29123666655E-04  0.32914064398E-04  0.30121248066E-03  0.30440184313E-03  0.00000000000E+00 0.  1.
<mgrwt>
<rscale>  1 0.63116419E+03</rscale>
<asrwt>0</asrwt>
<pdfrwt beam="1">  1        1 0.36215481E+00 0.63116419E+03</pdfrwt>
<pdfrwt beam="2">0</pdfrwt>
<totfact> 0.19724696E+00</totfact>
</mgrwt>
</event>
<event>
 6    1  0.2922874E-003  0.6456182E+03  0.7818608E-02  0.9815036E-01
          1   -1    0    0  502    0  0.00000000000E+00  0.00000000000E+00  0.11553705349E+03  0.11553705349E+03  0.00000000000E+00 0.  1.
         13   -1    0    0    0    0 -0.00000000000E+00 -0.00000000000E+00 -0.10000000000E+04  0.10000000000E+04  0.00000000000E+00 0.  1.
    9000005    2    1    2  501    0  0.11996777070E+01  0.39478410805E+00 -0.89575542294E+03  0.11041741707E+04  0.64561693478E+03 0.  0.
         13    1    3    3    0    0  0.58191880014E+02 -0.76255423835E+02 -0.97521898950E+03  0.97992513083E+03  0.00000000000E+00 0.  1.
          3    1    3    3  501    0 -0.56992202308E+02  0.76650207943E+02  0.79463566560E+02  0.12424903988E+03  0.00000000000E+00 0.  1.
         21    1    1    2  502  501 -0.11996777070E+01 -0.39478410805E+00  0.11292476428E+02  0.11362882775E+02  0.00000000000E+00 0.  1.
<mgrwt>
<rscale>  1 0.64561817E+03</rscale>
<asrwt>0</asrwt>
<pdfrwt beam="1">  1        1 0.42013563E+00 0.64561817E+03</pdfrwt>
<pdfrwt beam="2">0</pdfrwt>
<totfact> 0.10877322E+00</totfact>
</mgrwt>
</event>
<event>
 6    1  0.2922874E-003  0.5988680E+03  0.7818608E-02  0.9907757E-01
          1   -1    0    0  502    0  0.00000000000E+00  0.00000000000E+00  0.89660966999E+02  0.89660966999E+02  0.00000000000E+00 0.  1.
         13   -1    0    0    0    0 -0.00000000000E+00 -0.00000000000E+00 -0.10000000000E+04  0.10000000000E+04  0.00000000000E+00 0.  1.
    9000005    2    1    2  501    0 -0.16580542311E-03 -0.49082507616E-04 -0.91033924701E+03  0.10896606919E+04  0.59886799777E+03 0.  0.
         13    1    3    3    0    0  0.95747225107E+02  0.23684035048E+03 -0.73938874280E+03  0.78227654682E+03  0.00000000000E+00 0.  1.
          1    1    3    3  501    0 -0.95747390912E+02 -0.23684039957E+03 -0.17095050421E+03  0.30738414504E+03  0.00000000000E+00 0.  1.
         21    1    1    2  502  501  0.16580542312E-03  0.49082507614E-04  0.21400717456E-03  0.27513560593E-03  0.00000000000E+00 0. -1.
<mgrwt>
<rscale>  1 0.59886800E+03</rscale>
<asrwt>0</asrwt>
<pdfrwt beam="1">  1        1 0.32604057E+00 0.59886800E+03</pdfrwt>
<pdfrwt beam="2">0</pdfrwt>
<totfact> 0.28484342E+00</totfact>
</mgrwt>
</event>
<event>
 6    1  0.2922874E-003  0.6597004E+03  0.7818608E-02  0.9788745E-01
          1   -1    0    0  502    0  0.00000000000E+00  0.00000000000E+00  0.10880744211E+03  0.10880744211E+03  0.00000000000E+00 0.  1.
         13   -1    0    0    0    0 -0.00000000000E+00 -0.00000000000E+00 -0.10000000000E+04  0.10000000000E+04  0.00000000000E+00 0.  1.
    9000005    2    1    2  501    0  0.25097470634E-02  0.94716453142E-03 -0.89119852364E+03  0.11088009010E+04  0.65970040892E+03 0.  0.
         13    1    3    3    0    0  0.31725119472E+03 -0.89603353209E+02 -0.46437623797E+03  0.56949308323E+03  0.00000000000E+00 0.  1.
          1    1    3    3  501    0 -0.31724868498E+03  0.89604300373E+02 -0.42682228567E+03  0.53930781777E+03  0.00000000000E+00 0.  1.
         21    1    1    2  502  501 -0.25097470634E-02 -0.94716453143E-03  0.59657450065E-02  0.65411057517E-02  0.00000000000E+00 0.  1.
<mgrwt>
<rscale>  1 0.65970041E+03</rscale>
<asrwt>0</asrwt>
<pdfrwt beam="1">  1        1 0.39566426E+00 0.65970041E+03</pdfrwt>
<pdfrwt beam="2">0</pdfrwt>
<totfact> 0.13961369E+00</totfact>
</mgrwt>
</event>
<event>
 6    1  0.2922874E-003  0.6378111E+03  0.7818608E-02  0.9829924E-01
          1   -1    0    0  502    0  0.00000000000E+00  0.00000000000E+00  0.10170189768E+03  0.10170189768E+03  0.00000000000E+00 0.  1.
         13   -1    0    0    0    0 -0.00000000000E+00 -0.00000000000E+00 -0.10000000000E+04  0.10000000000E+04  0.00000000000E+00 0.  1.
    9000005    2    1    2  501    0 -0.11177642367E-03  0.62643352814E-04 -0.89829925849E+03  0.11017007344E+04  0.63781106170E+03 0.  0.
         13    1    3    3    0    0  0.23552383726E+03  0.11722367466E+02 -0.78312177929E+02  0.24847874966E+03  0.00000000000E+00 0.  1.
          3    1    3    3  501    0 -0.23552394904E+03 -0.11722304822E+02 -0.81998708057E+03  0.85322198477E+03  0.00000000000E+00 0.  1.
         21    1    1    2  502  501  0.11177642365E-03 -0.62643352814E-04  0.11561697055E-02  0.11632482738E-02  0.00000000000E+00 0.  1.
<mgrwt>
<rscale>  1 0.63781106E+03</rscale>
<asrwt>0</asrwt>
<pdfrwt beam="1">  1        1 0.36982586E+00 0.63781106E+03</pdfrwt>
<pdfrwt beam="2">0</pdfrwt>
<totfact> 0.18232851E+00</totfact>
</mgrwt>
</event>
<event>
 6    1  0.2922874E-003  0.6405470E+03  0.7818608E-02  0.9824680E-01
          1   -1    0    0  502    0  0.00000000000E+00  0.00000000000E+00  0.10321148754E+03  0.10321148754E+03  0.00000000000E+00 0.  1.
         13   -1    0    0    0    0 -0.00000000000E+00 -0.00000000000E+00 -0.10000000000E+04  0.10000000000E+04  0.00000000000E+00 0.  1.
    9000005    2    1    2  501    0  0.67958058052E-01  0.20516481453E+00 -0.89740457955E+03  0.11025586096E+04  0.64054700184E+03 0.  0.
         13    1    3    3    0    0  0.20617726205E+03  0.14841201082E+03 -0.78471038859E+03  0.82480639079E+03  0.00000000000E+00 0.  1.
          1    1    3    3  501    0 -0.20610930399E+03 -0.14820684601E+03 -0.11269419096E+03  0.27775221884E+03  0.00000000000E+00 0.  1.
         21    1    1    2  502  501 -0.67958058052E-01 -0.20516481453E+00  0.61606709463E+00  0.65287790885E+00  0.00000000000E+00 0.  1.
<mgrwt>
<rscale>  1 0.64054704E+03</rscale>
<asrwt>0</asrwt>
<pdfrwt beam="1">  1        1 0.37531529E+00 0.64054704E+03</pdfrwt>
<pdfrwt beam="2">0</pdfrwt>
<totfact> 0.17238581E+00</totfact>
</mgrwt>
</event>
<event>
 6    1  0.2922874E-003  0.6471756E+03  0.7818608E-02  0.9812094E-01
          1   -1    0    0  502    0  0.00000000000E+00  0.00000000000E+00  0.10470971026E+03  0.10470971026E+03  0.00000000000E+00 0.  1.
         13   -1    0    0    0    0 -0.00000000000E+00 -0.00000000000E+00 -0.10000000000E+04  0.10000000000E+04  0.00000000000E+00 0.  1.
    9000005    2    1    2  501    0  0.16914778260E-03  0.18903397512E-03 -0.89529092031E+03  0.11047090306E+04  0.64717556370E+03 0.  0.
         13    1    3    3    0    0 -0.17805549255E+03 -0.20156405912E+03 -0.14049911735E+03  0.30343340345E+03  0.00000000000E+00 0.  1.
          1    1    3    3  501    0  0.17805566170E+03  0.20156424815E+03 -0.75479180297E+03  0.80127562712E+03  0.00000000000E+00 0.  1.
         21    1    1    2  502  501 -0.16914778260E-03 -0.18903397512E-03  0.63057230588E-03  0.67968099065E-03  0.00000000000E+00 0.  1.
<mgrwt>
<rscale>  1 0.64717556E+03</rscale>
<asrwt>0</asrwt>
<pdfrwt beam="1">  1        1 0.38076339E+00 0.64717556E+03</pdfrwt>
<pdfrwt beam="2">0</pdfrwt>
<totfact> 0.16291379E+00</totfact>
</mgrwt>
</event>
<event>
 6    1  0.2922874E-003  0.6057700E+03  0.7818608E-02  0.9893507E-01
          1   -1    0    0  502    0  0.00000000000E+00  0.00000000000E+00  0.91743686824E+02  0.91743686824E+02  0.00000000000E+00 0.  1.
         13   -1    0    0    0    0 -0.00000000000E+00 -0.00000000000E+00 -0.10000000000E+04  0.10000000000E+04  0.00000000000E+00 0.  1.
    9000005    2    1    2  501    0  0.55466819191E-05  0.33666839366E-03 -0.90826067855E+03  0.10917393085E+04  0.60576997078E+03 0.  0.
         13    1    3    3    0    0 -0.73769298859E+02 -0.14859974095E+03  0.25698202435E+01  0.16592286293E+03  0.00000000000E+00 0.  1.
          3    1    3    3  501    0  0.73769304405E+02  0.14860007762E+03 -0.91083049879E+03  0.92581644556E+03  0.00000000000E+00 0.  1.
         21    1    1    2  502  501 -0.55466819137E-05 -0.33666839366E-03  0.43653711992E-02  0.43783378216E-02  0.00000000000E+00 0. -1.
<mgrwt>
<rscale>  1 0.60576997E+03</rscale>
<asrwt>0</asrwt>
<pdfrwt beam="1">  1        1 0.33361411E+00 0.60576997E+03</pdfrwt>
<pdfrwt beam="2">0</pdfrwt>
<totfact> 0.26379873E+00</totfact>
</mgrwt>
</event>
<event>
 6    1  0.2922874E-003  0.6504262E+03  0.7818608E-02  0.9805980E-01
          1   -1    0    0  502    0  0.00000000000E+00  0.00000000000E+00  0.10576362469E+03  0.10576362469E+03  0.00000000000E+00 0.  1.
         13   -1    0    0    0    0 -0.00000000000E+00 -0.00000000000E+00 -0.10000000000E+04  0.10000000000E+04  0.00000000000E+00 0.  1.
    9000005    2    1    2  501    0 -0.76528857562E-06  0.11524126933E-04 -0.89423644613E+03  0.11057635529E+04  0.65042617828E+03 0.  0.
         13    1    3    3    0    0 -0.26011330384E+03 -0.16526849082E+03 -0.62371957526E+03  0.69570016060E+03  0.00000000000E+00 0.  1.
          3    1    3    3  501    0  0.26011330308E+03  0.16526850234E+03 -0.27051687088E+03  0.41006339234E+03  0.00000000000E+00 0.  1.
         21    1    1    2  502  501  0.76528854573E-06 -0.11524126933E-04  0.70826093187E-04  0.71761595887E-04  0.00000000000E+00 0.  1.
<mgrwt>
<rscale>  1 0.65042618E+03</rscale>
<asrwt>0</asrwt>
<pdfrwt beam="1">  1        1 0.38459581E+00 0.65042618E+03</pdfrwt>
<pdfrwt beam="2">0</pdfrwt>
<totfact> 0.15659061E+00</totfact>
</mgrwt>
</event>
<event>
 6    1  0.2922874E-003  0.6505351E+03  0.7818608E-02  0.9805776E-01
          1   -1    0    0  502    0  0.00000000000E+00  0.00000000000E+00  0.10582779341E+03  0.10582779341E+03  0.00000000000E+00 0.  1.
         13   -1    0    0    0    0 -0.00000000000E+00 -0.00000000000E+00 -0.10000000000E+04  0.10000000000E+04  0.00000000000E+00 0.  1.
    9000005    2    1    2  501    0  0.28841714053E-02 -0.33166192028E-02 -0.89420084911E+03  0.11057988156E+04  0.65053505828E+03 0.  0.
         13    1    3    3    0    0 -0.27823398921E+03  0.53567510431E+02 -0.71861577860E+03  0.77245858671E+03  0.00000000000E+00 0.  1.
          1    1    3    3  501    0  0.27823687339E+03 -0.53570827050E+02 -0.17558507051E+03  0.33334022891E+03  0.00000000000E+00 0.  1.
         21    1    1    2  502  501 -0.28841714053E-02  0.33166192028E-02  0.28642518264E-01  0.28977789083E-01  0.00000000000E+00 0.  1.
<mgrwt>
<rscale>  1 0.65053506E+03</rscale>
<asrwt>0</asrwt>
<pdfrwt beam="1">  1        1 0.38482915E+00 0.65053506E+03</pdfrwt>
<pdfrwt beam="2">0</pdfrwt>
<totfact> 0.15621582E+00</totfact>
</mgrwt>
</event>
<event>
 6    1  0.2922874E-003  0.6620266E+03  0.7818608E-02  0.9784470E-01
          1   -1    0    0  502    0  0.00000000000E+00  0.00000000000E+00  0.10957055463E+03  0.10957055463E+03  0.00000000000E+00 0.  1.
         13   -1    0    0    0    0 -0.00000000000E+00 -0.00000000000E+00 -0.10000000000E+04  0.10000000000E+04  0.00000000000E+00 0.  1.
    9000005    2    1    2  501    0 -0.80782277948E-04 -0.38919290773E-04 -0.89043019565E+03  0.11095697990E+04  0.66202658977E+03 0.  0.
         13    1    3    3    0    0  0.61731335411E+02 -0.10785736273E+03  0.68986722944E+02  0.14213773746E+03  0.00000000000E+00 0.  1.
          3    1    3    3  501    0 -0.61731416193E+02  0.10785732381E+03 -0.95941691859E+03  0.96743206156E+03  0.00000000000E+00 0.  1.
         21    1    1    2  502  501  0.80782277942E-04  0.38919290786E-04  0.75027372579E-03  0.75561309625E-03  0.00000000000E+00 0.  1.
<mgrwt>
<rscale>  1 0.66202659E+03</rscale>
<asrwt>0</asrwt>
<pdfrwt beam="1">  1        1 0.39843922E+00 0.66202659E+03</pdfrwt>
<pdfrwt beam="2">0</pdfrwt>
<totfact> 0.13563934E+00</totfact>
</mgrwt>
</event>
<event>
 6    1  0.2922874E-003  0.6621707E+03  0.7818608E-02  0.9784206E-01
          1   -1    0    0  502    0  0.00000000000E+00  0.00000000000E+00  0.11015399995E+03  0.11015399995E+03  0.00000000000E+00 0.  1.
         13   -1    0    0    0    0 -0.00000000000E+00 -0.00000000000E+00 -0.10000000000E+04  0.10000000000E+04  0.00000000000E+00 0.  1.
    9000005    2    1    2  501    0 -0.22233296729E-01 -0.13681722517E-01 -0.89038213838E+03  0.11096172264E+04  0.66217070017E+03 0.  0.
         13    1    3    3    0    0  0.18969073598E+03 -0.32239746123E+02 -0.89667209574E+03  0.91708386957E+03  0.00000000000E+00 0.  1.
          1    1    3    3  501    0 -0.18971296928E+03  0.32226064400E+02  0.62899573647E+01  0.19253335686E+03  0.00000000000E+00 0.  1.
         21    1    1    2  502  501  0.22233296729E-01  0.13681722517E-01  0.53613832131E+00  0.53677351703E+00  0.00000000000E+00 0.  1.
<mgrwt>
<rscale>  1 0.66217070E+03</rscale>
<asrwt>0</asrwt>
<pdfrwt beam="1">  1        1 0.40056084E+00 0.66217070E+03</pdfrwt>
<pdfrwt beam="2">0</pdfrwt>
<totfact> 0.13271371E+00</totfact>
</mgrwt>
</event>
<event>
 6    1  0.2922874E-003  0.6671209E+03  0.7818608E-02  0.9775173E-01
          1   -1    0    0  502    0  0.00000000000E+00  0.00000000000E+00  0.11126270392E+03  0.11126270392E+03  0.00000000000E+00 0.  1.
         13   -1    0    0    0    0 -0.00000000000E+00 -0.00000000000E+00 -0.10000000000E+04  0.10000000000E+04  0.00000000000E+00 0.  1.
    9000005    2    1    2  501    0  0.61324744223E-04 -0.39185258572E-04 -0.88873742912E+03  0.11112625523E+04  0.66712086024E+03 0.  0.
         13    1    3    3    0    0  0.13631462159E+03 -0.83615681026E+02  0.43244504910E+02  0.16566033133E+03  0.00000000000E+00 0.  1.
          3    1    3    3  501    0 -0.13631456026E+03  0.83615641841E+02 -0.93198193403E+03  0.94560222095E+03  0.00000000000E+00 0.  1.
         21    1    1    2  502  501 -0.61324744245E-04  0.39185258570E-04  0.13304091955E-03  0.15164463400E-03  0.00000000000E+00 0. -1.
<mgrwt>
<rscale>  1 0.66712086E+03</rscale>
<asrwt>0</asrwt>
<pdfrwt beam="1">  1        1 0.40459250E+00 0.66712086E+03</pdfrwt>
<pdfrwt beam="2">0</pdfrwt>
<totfact> 0.12720596E+00</totfact>
</mgrwt>
</event>
<event>
 6    1  0.2922874E-003  0.6634426E+03  0.7818608E-02  0.9781877E-01
          1   -1    0    0  502    0  0.00000000000E+00  0.00000000000E+00  0.11003976777E+03  0.11003976777E+03  0.00000000000E+00 0.  1.
         13   -1    0    0    0    0 -0.00000000000E+00 -0.00000000000E+00 -0.10000000000E+04  0.10000000000E+04  0.00000000000E+00 0.  1.
    9000005    2    1    2  501    0  0.34013806163E-03  0.70820853466E-04 -0.88996095148E+03  0.11100389690E+04  0.66344255028E+03 0.  0.
         13    1    3    3    0    0  0.36727736650E+02  0.22823050938E+03 -0.84303887523E+03  0.87415824494E+03  0.00000000000E+00 0.  1.
          3    1    3    3  501    0 -0.36727396512E+02 -0.22823043856E+03 -0.46922076255E+02  0.23588072406E+03  0.00000000000E+00 0.  1.
         21    1    1    2  502  501 -0.34013806163E-03 -0.70820853463E-04  0.71925270545E-03  0.79877027270E-03  0.00000000000E+00 0.  1.
<mgrwt>
<rscale>  1 0.66344255E+03</rscale>
<asrwt>0</asrwt>
<pdfrwt beam="1">  1        1 0.40014545E+00 0.66344255E+03</pdfrwt>
<pdfrwt beam="2">0</pdfrwt>
<totfact> 0.13324935E+00</totfact>
</mgrwt>
</event>
<event>
 6    1  0.2922874E-003  0.6636638E+03  0.7818608E-02  0.9781472E-01
          1   -1    0    0  502    0  0.00000000000E+00  0.00000000000E+00  0.11013390178E+03  0.11013390178E+03  0.00000000000E+00 0.  1.
         13   -1    0    0    0    0 -0.00000000000E+00 -0.00000000000E+00 -0.10000000000E+04  0.10000000000E+04  0.00000000000E+00 0.  1.
    9000005    2    1    2  501    0  0.10033732626E-02  0.10224673787E-04 -0.88988756989E+03  0.11101124067E+04  0.66366382183E+03 0.  0.
         13    1    3    3    0    0 -0.12290434839E+03 -0.25398429887E+03 -0.73706273223E+03  0.78922428635E+03  0.00000000000E+00 0.  1.
          3    1    3    3  501    0  0.12290535176E+03  0.25398430910E+03 -0.15282483766E+03  0.32088812032E+03  0.00000000000E+00 0.  1.
         21    1    1    2  502  501 -0.10033732626E-02 -0.10224673773E-04  0.21471676060E-01  0.21495109566E-01  0.00000000000E+00 0.  1.
<mgrwt>
<rscale>  1 0.66366382E+03</rscale>
<asrwt>0</asrwt>
<pdfrwt beam="1">  1        1 0.40048776E+00 0.66366382E+03</pdfrwt>
<pdfrwt beam="2">0</pdfrwt>
<totfact> 0.13277624E+00</totfact>
</mgrwt>
</event>
<event>
 6    1  0.2922874E-003  0.6514437E+03  0.7818608E-02  0.9804074E-01
          1   -1    0    0  502    0  0.00000000000E+00  0.00000000000E+00  0.10609484094E+03  0.10609484094E+03  0.00000000000E+00 0.  1.
         13   -1    0    0    0    0 -0.00000000000E+00 -0.00000000000E+00 -0.10000000000E+04  0.10000000000E+04  0.00000000000E+00 0.  1.
    9000005    2    1    2  501    0  0.64087453211E-05  0.27278608599E-04 -0.89390526028E+03  0.11060947359E+04  0.65144374314E+03 0.  0.
         13    1    3    3    0    0  0.27851186231E+03 -0.14645505652E+03 -0.30411793541E+03  0.43761359630E+03  0.00000000000E+00 0.  1.
          3    1    3    3  501    0 -0.27851185590E+03  0.14645508380E+03 -0.58978732486E+03  0.66848113961E+03  0.00000000000E+00 0.  1.
         21    1    1    2  502  501 -0.64087452999E-05 -0.27278608595E-04  0.10121370789E-03  0.10502099394E-03  0.00000000000E+00 0.  1.
<mgrwt>
<rscale>  1 0.65144374E+03</rscale>
<asrwt>0</asrwt>
<pdfrwt beam="1">  1        1 0.38580024E+00 0.65144374E+03</pdfrwt>
<pdfrwt beam="2">0</pdfrwt>
<totfact> 0.15465219E+00</totfact>
</mgrwt>
</event>
<event>
 6    1  0.2922874E-003  0.6856551E+03  0.7818608E-02  0.9742083E-01
          1   -1    0    0  502    0  0.00000000000E+00  0.00000000000E+00  0.11753804647E+03  0.11753804647E+03  0.00000000000E+00 0.  1.
         13   -1    0    0    0    0 -0.00000000000E+00 -0.00000000000E+00 -0.10000000000E+04  0.10000000000E+04  0.00000000000E+00 0.  1.
    9000005    2    1    2  501    0  0.39116427592E-03  0.11452285501E-03 -0.88246925843E+03  0.11175307302E+04  0.68565511802E+03 0.  0.
         13    1    3    3    0    0  0.24348387882E+03 -0.56981283399E+02 -0.58997242878E+02  0.25692788982E+03  0.00000000000E+00 0.  1.
          1    1    3    3  501    0 -0.24348348765E+03  0.56981397922E+02 -0.82347201556E+03  0.86060284038E+03  0.00000000000E+00 0.  1.
         21    1    1    2  502  501 -0.39116427593E-03 -0.11452285501E-03  0.73048999493E-02  0.73162619038E-02  0.00000000000E+00 0.  1.
<mgrwt>
<rscale>  1 0.68565512E+03</rscale>
<asrwt>0</asrwt>
<pdfrwt beam="1">  1        1 0.42741198E+00 0.68565512E+03</pdfrwt>
<pdfrwt beam="2">0</pdfrwt>
<totfact> 0.10005012E+00</totfact>
</mgrwt>
</event>
<event>
 6    1  0.2922874E-003  0.6558172E+03  0.7818608E-02  0.9795925E-01
          1   -1    0    0  502    0  0.00000000000E+00  0.00000000000E+00  0.10755530582E+03  0.10755530582E+03  0.00000000000E+00 0.  1.
         13   -1    0    0    0    0 -0.00000000000E+00 -0.00000000000E+00 -0.10000000000E+04  0.10000000000E+04  0.00000000000E+00 0.  1.
    9000005    2    1    2  501    0 -0.56305462754E-02  0.23913803579E-02 -0.89247563457E+03  0.11075237665E+04  0.65581715058E+03 0.  0.
         13    1    3    3    0    0 -0.29485298334E+03 -0.54220876788E+01 -0.68837798981E+03  0.74888713280E+03  0.00000000000E+00 0.  1.
          3    1    3    3  501    0  0.29484735280E+03  0.54244790592E+01 -0.20409764476E+03  0.35863663369E+03  0.00000000000E+00 0.  1.
         21    1    1    2  502  501  0.56305462755E-02 -0.23913803579E-02  0.30940389194E-01  0.31539331553E-01  0.00000000000E+00 0.  1.
<mgrwt>
<rscale>  1 0.65581715E+03</rscale>
<asrwt>0</asrwt>
<pdfrwt beam="1">  1        1 0.39111103E+00 0.65581715E+03</pdfrwt>
<pdfrwt beam="2">0</pdfrwt>
<totfact> 0.14637645E+00</totfact>
</mgrwt>
</event>
<event>
 6    1  0.2922874E-003  0.6328962E+03  0.7818608E-02  0.9839413E-01
          1   -1    0    0  502    0  0.00000000000E+00  0.00000000000E+00  0.10029719813E+03  0.10029719813E+03  0.00000000000E+00 0.  1.
         13   -1    0    0    0    0 -0.00000000000E+00 -0.00000000000E+00 -0.10000000000E+04  0.10000000000E+04  0.00000000000E+00 0.  1.
    9000005    2    1    2  501    0 -0.10904484243E+00 -0.17884004628E+00 -0.89978043489E+03  0.11000738119E+04  0.63289613418E+03 0.  0.
         13    1    3    3    0    0 -0.63572811961E+02  0.13837134192E+03  0.32260681660E+02  0.15565629530E+03  0.00000000000E+00 0.  1.
          3    1    3    3  501    0  0.63463767119E+02 -0.13855018196E+03 -0.93204111655E+03  0.94441751656E+03  0.00000000000E+00 0.  1.
         21    1    1    2  502  501  0.10904484243E+00  0.17884004628E+00  0.77633016321E-01  0.22338626869E+00  0.00000000000E+00 0. -1.
<mgrwt>
<rscale>  1 0.63289617E+03</rscale>
<asrwt>0</asrwt>
<pdfrwt beam="1">  1        1 0.36471785E+00 0.63289617E+03</pdfrwt>
<pdfrwt beam="2">0</pdfrwt>
<totfact> 0.19215393E+00</totfact>
</mgrwt>
</event>
<event>
 6    1  0.2922874E-003  0.6422658E+03  0.7818608E-02  0.9821401E-01
          1   -1    0    0  502    0  0.00000000000E+00  0.00000000000E+00  0.10313512657E+03  0.10313512657E+03  0.00000000000E+00 0.  1.
         13   -1    0    0    0    0 -0.00000000000E+00 -0.00000000000E+00 -0.10000000000E+04  0.10000000000E+04  0.00000000000E+00 0.  1.
    9000005    2    1    2  501    0  0.13124808709E-03 -0.18643465475E-03 -0.89687364442E+03  0.11031263526E+04  0.64226584511E+03 0.  0.
         13    1    3    3    0    0 -0.14711604274E+03  0.21252331393E+03 -0.12112203860E+03  0.28544673273E+03  0.00000000000E+00 0.  1.
          1    1    3    3  501    0  0.14711617398E+03 -0.21252350036E+03 -0.77575160582E+03  0.81767961989E+03  0.00000000000E+00 0.  1.
         21    1    1    2  502  501 -0.13124808709E-03  0.18643465477E-03  0.87709877404E-02  0.87739506429E-02  0.00000000000E+00 0. -1.
<mgrwt>
<rscale>  1 0.64226585E+03</rscale>
<asrwt>0</asrwt>
<pdfrwt beam="1">  1        1 0.37503761E+00 0.64226585E+03</pdfrwt>
<pdfrwt beam="2">0</pdfrwt>
<totfact> 0.17281726E+00</totfact>
</mgrwt>
</event>
<event>
 6    1  0.2922874E-003  0.6282989E+03  0.7818608E-02  0.9848374E-01
          1   -1    0    0  502    0  0.00000000000E+00  0.00000000000E+00  0.98692307464E+02  0.98692307464E+02  0.00000000000E+00 0.  1.
         13   -1    0    0    0    0 -0.00000000000E+00 -0.00000000000E+00 -0.10000000000E+04  0.10000000000E+04  0.00000000000E+00 0.  1.
    9000005    2    1    2  501    0 -0.10502059628E-03  0.11972472436E-03 -0.90131013068E+03  0.10986898641E+04  0.62829886669E+03 0.  0.
         13    1    3    3    0    0 -0.11151951003E+03 -0.12736187039E+03  0.12107034363E+02  0.16971808221E+03  0.00000000000E+00 0.  1.
          3    1    3    3  501    0  0.11151940501E+03  0.12736199011E+03 -0.91341716504E+03  0.92897178192E+03  0.00000000000E+00 0.  1.
         21    1    1    2  502  501  0.10502059627E-03 -0.11972472435E-03  0.24381402713E-02  0.24433361041E-02  0.00000000000E+00 0.  1.
<mgrwt>
<rscale>  1 0.62829887E+03</rscale>
<asrwt>0</asrwt>
<pdfrwt beam="1">  1        1 0.35888187E+00 0.62829887E+03</pdfrwt>
<pdfrwt beam="2">0</pdfrwt>
<totfact> 0.20396327E+00</totfact>
</mgrwt>
</event>
<event>
 6    1  0.2922874E-003  0.6500312E+03  0.7818608E-02  0.9806721E-01
          1   -1    0    0  502    0  0.00000000000E+00  0.00000000000E+00  0.10564034784E+03  0.10564034784E+03  0.00000000000E+00 0.  1.
         13   -1    0    0    0    0 -0.00000000000E+00 -0.00000000000E+00 -0.10000000000E+04  0.10000000000E+04  0.00000000000E+00 0.  1.
    9000005    2    1    2  501    0  0.18453027054E-02 -0.18230193439E-02 -0.89436448482E+03  0.11056348630E+04  0.65003124434E+03 0.  0.
         13    1    3    3    0    0  0.28564026900E+03  0.13401411856E+03 -0.57986671374E+03  0.66014812955E+03  0.00000000000E+00 0.  1.
          3    1    3    3  501    0 -0.28563842370E+03 -0.13401594158E+03 -0.31449777108E+03  0.44548673348E+03  0.00000000000E+00 0.  1.
         21    1    1    2  502  501 -0.18453027054E-02  0.18230193439E-02  0.48326650999E-02  0.54848148165E-02  0.00000000000E+00 0.  1.
<mgrwt>
<rscale>  1 0.65003124E+03</rscale>
<asrwt>0</asrwt>
<pdfrwt beam="1">  1        1 0.38414753E+00 0.65003124E+03</pdfrwt>
<pdfrwt beam="2">0</pdfrwt>
<totfact> 0.15731842E+00</totfact>
</mgrwt>
</event>
<event>
 6    1  0.2922874E-003  0.5993086E+03  0.7818608E-02  0.9906842E-01
          3   -1    0    0  502    0  0.00000000000E+00  0.00000000000E+00  0.89793420569E+02  0.89793420569E+02  0.00000000000E+00 0.  1.
         13   -1    0    0    0    0 -0.00000000000E+00 -0.00000000000E+00 -0.10000000000E+04  0.10000000000E+04  0.00000000000E+00 0.  1.
    9000005    2    1    2  501    0 -0.10239327557E-02 -0.63481583918E-03 -0.91020673548E+03  0.10897922058E+04  0.59930856026E+03 0.  0.
         13    1    3    3    0    0  0.19103951859E+03 -0.10773779445E+03 -0.83820858402E+02  0.23479664887E+03  0.00000000000E+00 0.  1.
          3    1    3    3  501    0 -0.19104054253E+03  0.10773715963E+03 -0.82638587708E+03  0.85499555688E+03  0.00000000000E+00 0.  1.
         21    1    1    2  502  501  0.10239327557E-02  0.63481583918E-03  0.15605208933E-03  0.12148175552E-02  0.00000000000E+00 0. -1.
<mgrwt>
<rscale>  1 0.59930856E+03</rscale>
<asrwt>0</asrwt>
<pdfrwt beam="1">  1        3 0.32652222E+00 0.59930856E+03</pdfrwt>
<pdfrwt beam="2">0</pdfrwt>
<totfact> 0.14651447E-01</totfact>
</mgrwt>
</event>
<event>
 6    1  0.2922874E-003  0.6576336E+03  0.7818608E-02  0.9792560E-01
          1   -1    0    0  502    0  0.00000000000E+00  0.00000000000E+00  0.11026585874E+03  0.11026585874E+03  0.00000000000E+00 0.  1.
         13   -1    0    0    0    0 -0.00000000000E+00 -0.00000000000E+00 -0.10000000000E+04  0.10000000000E+04  0.00000000000E+00 0.  1.
    9000005    2    1    2  501    0  0.43635404825E-01  0.12450989843E-01 -0.89187925878E+03  0.11081202613E+04  0.65763356003E+03 0.  0.
         13    1    3    3    0    0  0.88673928845E+02  0.20227056006E+03 -0.35451237887E+02  0.22368110200E+03  0.00000000000E+00 0.  1.
          3    1    3    3  501    0 -0.88630293440E+02 -0.20225810907E+03 -0.85642802089E+03  0.88443915933E+03  0.00000000000E+00 0.  1.
         21    1    1    2  502  501 -0.43635404825E-01 -0.12450989843E-01  0.21451175182E+01  0.21455974092E+01  0.00000000000E+00 0. -1.
<mgrwt>
<rscale>  1 0.65763356E+03</rscale>
<asrwt>0</asrwt>
<pdfrwt beam="1">  1        1 0.40096760E+00 0.65763356E+03</pdfrwt>
<pdfrwt beam="2">0</pdfrwt>
<totfact> 0.13227324E+00</totfact>
</mgrwt>
</event>
<event>
 6    1  0.2922874E-003  0.6467418E+03  0.7818608E-02  0.9812912E-01
          1   -1    0    0  502    0  0.00000000000E+00  0.00000000000E+00  0.10511696417E+03  0.10511696417E+03  0.00000000000E+00 0.  1.
         13   -1    0    0    0    0 -0.00000000000E+00 -0.00000000000E+00 -0.10000000000E+04  0.10000000000E+04  0.00000000000E+00 0.  1.
    9000005    2    1    2  501    0 -0.98637184058E-02 -0.24222031001E-01 -0.89543092384E+03  0.11045684523E+04  0.64674177672E+03 0.  0.
         13    1    3    3    0    0 -0.15444643069E+03  0.17404731814E+03 -0.83120723551E+03  0.86316373723E+03  0.00000000000E+00 0.  1.
          3    1    3    3  501    0  0.15443656697E+03 -0.17407154017E+03 -0.64223688329E+02  0.24140471507E+03  0.00000000000E+00 0.  1.
         21    1    1    2  502  501  0.98637184058E-02  0.24222031001E-01  0.54788801620E+00  0.54851187592E+00  0.00000000000E+00 0.  1.
<mgrwt>
<rscale>  1 0.64674178E+03</rscale>
<asrwt>0</asrwt>
<pdfrwt beam="1">  1        1 0.38224431E+00 0.64674178E+03</pdfrwt>
<pdfrwt beam="2">0</pdfrwt>
<totfact> 0.16049210E+00</totfact>
</mgrwt>
</event>
<event>
 6    1  0.2922874E-003  0.6384101E+03  0.7818608E-02  0.9828773E-01
          1   -1    0    0  502    0  0.00000000000E+00  0.00000000000E+00  0.10189573217E+03  0.10189573217E+03  0.00000000000E+00 0.  1.
         13   -1    0    0    0    0 -0.00000000000E+00 -0.00000000000E+00 -0.10000000000E+04  0.10000000000E+04  0.00000000000E+00 0.  1.
    9000005    2    1    2  501    0  0.61221542353E-04  0.35983525805E-04 -0.89810813243E+03  0.11018918669E+04  0.63841011022E+03 0.  0.
         13    1    3    3    0    0 -0.21393266875E+03 -0.23052952481E+03 -0.54328754463E+03  0.62775186556E+03  0.00000000000E+00 0.  1.
          3    1    3    3  501    0  0.21393272997E+03  0.23052956079E+03 -0.35482058781E+03  0.47414000135E+03  0.00000000000E+00 0.  1.
         21    1    1    2  502  501 -0.61221542364E-04 -0.35983525784E-04  0.38646010901E-02  0.38652534816E-02  0.00000000000E+00 0.  1.
<mgrwt>
<rscale>  1 0.63841011E+03</rscale>
<asrwt>0</asrwt>
<pdfrwt beam="1">  1        1 0.37053072E+00 0.63841011E+03</pdfrwt>
<pdfrwt beam="2">0</pdfrwt>
<totfact> 0.18101365E+00</totfact>
</mgrwt>
</event>
<event>
 6    1  0.2922874E-003  0.6426552E+03  0.7818608E-02  0.9820660E-01
          1   -1    0    0  502    0  0.00000000000E+00  0.00000000000E+00  0.10325149146E+03  0.10325149146E+03  0.00000000000E+00 0.  1.
         13   -1    0    0    0    0 -0.00000000000E+00 -0.00000000000E+00 -0.10000000000E+04  0.10000000000E+04  0.00000000000E+00 0.  1.
    9000005    2    1    2  501    0  0.10495650235E-03 -0.49058251136E-04 -0.89674853726E+03  0.11032513721E+04  0.64265515711E+03 0.  0.
         13    1    3    3    0    0  0.22687647842E+03 -0.20852264483E+03 -0.29200477589E+03  0.42452493332E+03  0.00000000000E+00 0.  1.
          1    1    3    3  501    0 -0.22687637346E+03  0.20852259578E+03 -0.60474376136E+03  0.67872643878E+03  0.00000000000E+00 0.  1.
         21    1    1    2  502  501 -0.10495650236E-03  0.49058251148E-04  0.28719982002E-04  0.11936254337E-03  0.00000000000E+00 0.  1.
<mgrwt>
<rscale>  1 0.64265516E+03</rscale>
<asrwt>0</asrwt>
<pdfrwt beam="1">  1        1 0.37546076E+00 0.64265516E+03</pdfrwt>
<pdfrwt beam="2">0</pdfrwt>
<totfact> 0.17206531E+00</totfact>
</mgrwt>
</event>
<event>
 6    1  0.2922874E-003  0.6496405E+03  0.7818608E-02  0.9807454E-01
          1   -1    0    0  502    0  0.00000000000E+00  0.00000000000E+00  0.10550851595E+03  0.10550851595E+03  0.00000000000E+00 0.  1.
         13   -1    0    0    0    0 -0.00000000000E+00 -0.00000000000E+00 -0.10000000000E+04  0.10000000000E+04  0.00000000000E+00 0.  1.
    9000005    2    1    2  501    0  0.19925864996E-03  0.59564541394E-03 -0.89449143255E+03  0.11055078857E+04  0.64964048715E+03 0.  0.
         13    1    3    3    0    0 -0.29622683243E+03  0.11048097912E+03 -0.57404192874E+03  0.65534763214E+03  0.00000000000E+00 0.  1.
          3    1    3    3  501    0  0.29622703169E+03 -0.11048038348E+03 -0.32044950381E+03  0.45016025361E+03  0.00000000000E+00 0.  1.
         21    1    1    2  502  501 -0.19925864995E-03 -0.59564541393E-03 -0.51499534986E-04  0.63019812029E-03  0.00000000000E+00 0. -1.
<mgrwt>
<rscale>  1 0.64964049E+03</rscale>
<asrwt>0</asrwt>
<pdfrwt beam="1">  1        1 0.38366814E+00 0.64964049E+03</pdfrwt>
<pdfrwt beam="2">0</pdfrwt>
<totfact> 0.15809939E+00</totfact>
</mgrwt>
</event>
<event>
 6    1  0.2922874E-003  0.6471933E+03  0.7818608E-02  0.9812060E-01
          1   -1    0    0  502    0  0.00000000000E+00  0.00000000000E+00  0.10471481081E+03  0.10471481081E+03  0.00000000000E+00 0.  1.
         13   -1    0    0    0    0 -0.00000000000E+00 -0.00000000000E+00 -0.10000000000E+04  0.10000000000E+04  0.00000000000E+00 0.  1.
    9000005    2    1    2  501    0  0.27777258538E-06  0.13768426868E-04 -0.89528519668E+03  0.11047147951E+04  0.64719332135E+03 0.  0.
         13    1    3    3    0    0  0.15618534151E+03  0.24222103254E+03 -0.19648622377E+03  0.34881474401E+03  0.00000000000E+00 0.  1.
          3    1    3    3  501    0 -0.15618534123E+03 -0.24222101877E+03 -0.69879897290E+03  0.75590005112E+03  0.00000000000E+00 0.  1.
         21    1    1    2  502  501 -0.27777259982E-06 -0.13768426861E-04  0.74829879087E-05  0.15672965383E-04  0.00000000000E+00 0.  1.
<mgrwt>
<rscale>  1 0.64719332E+03</rscale>
<asrwt>0</asrwt>
<pdfrwt beam="1">  1        1 0.38078193E+00 0.64719332E+03</pdfrwt>
<pdfrwt beam="2">0</pdfrwt>
<totfact> 0.16288255E+00</totfact>
</mgrwt>
</event>
<event>
 6    1  0.2922874E-003  0.6538512E+03  0.7818608E-02  0.9799579E-01
          1   -1    0    0  502    0  0.00000000000E+00  0.00000000000E+00  0.11519505101E+03  0.11519505101E+03  0.00000000000E+00 0.  1.
         13   -1    0    0    0    0 -0.00000000000E+00 -0.00000000000E+00 -0.10000000000E+04  0.10000000000E+04  0.00000000000E+00 0.  1.
    9000005    2    1    2  501    0  0.20581196289E+02  0.31018629299E+01 -0.87466147702E+03  0.10920412777E+04  0.65351988926E+03 0.  0.
         13    1    3    3    0    0 -0.29756405804E+03 -0.66909046673E+02 -0.56771452797E+03  0.64445401265E+03  0.00000000000E+00 0.  1.
          3    1    3    3  501    0  0.31814525433E+03  0.70010909603E+02 -0.30694694905E+03  0.44758726506E+03  0.00000000000E+00 0.  1.
         21    1    1    2  502  501 -0.20581196289E+02 -0.31018629299E+01 -0.10143471970E+02  0.23153773298E+02  0.00000000000E+00 0. -1.
<mgrwt>
<rscale>  1 0.65385125E+03</rscale>
<asrwt>0</asrwt>
<pdfrwt beam="1">  1        1 0.41889198E+00 0.65385125E+03</pdfrwt>
<pdfrwt beam="2">0</pdfrwt>
<totfact> 0.11000758E+00</totfact>
</mgrwt>
</event>
<event>
 6    1  0.2922874E-003  0.6265121E+03  0.7818608E-02  0.9851879E-01
          1   -1    0    0  502    0  0.00000000000E+00  0.00000000000E+00  0.13562753861E+03  0.13562753861E+03  0.00000000000E+00 0.  1.
         13   -1    0    0    0    0 -0.00000000000E+00 -0.00000000000E+00 -0.10000000000E+04  0.10000000000E+04  0.00000000000E+00 0.  1.
    9000005    2    1    2  501    0 -0.10668844357E+01  0.59255793899E+00 -0.90185974263E+03  0.10981203977E+04  0.62651091214E+03 0.  0.
         13    1    3    3    0    0  0.36268588985E+02 -0.17981456639E+03 -0.60212882235E+01  0.18353458733E+03  0.00000000000E+00 0.  1.
          3    1    3    3  501    0 -0.37335473421E+02  0.18040712433E+03 -0.89583845440E+03  0.91458581034E+03  0.00000000000E+00 0.  1.
         21    1    1    2  502  501  0.10668844357E+01 -0.59255793899E+00  0.37487281240E+02  0.37507140948E+02  0.00000000000E+00 0.  1.
<mgrwt>
<rscale>  1 0.62651210E+03</rscale>
<asrwt>0</asrwt>
<pdfrwt beam="1">  1        1 0.49319209E+00 0.62651210E+03</pdfrwt>
<pdfrwt beam="2">0</pdfrwt>
<totfact> 0.50112312E-01</totfact>
</mgrwt>
</event>
<event>
 6    1  0.2922874E-003  0.6354646E+03  0.7818608E-02  0.9834443E-01
          1   -1    0    0  502    0  0.00000000000E+00  0.00000000000E+00  0.10096862809E+03  0.10096862809E+03  0.00000000000E+00 0.  1.
         13   -1    0    0    0    0 -0.00000000000E+00 -0.00000000000E+00 -0.10000000000E+04  0.10000000000E+04  0.00000000000E+00 0.  1.
    9000005    2    1    2  501    0 -0.13526825146E-02 -0.63217453555E-03 -0.89904615347E+03  0.11009537713E+04  0.63546457061E+03 0.  0.
         13    1    3    3    0    0 -0.36214968885E+02  0.29117896039E+03 -0.23834767765E+03  0.37802953111E+03  0.00000000000E+00 0.  1.
          3    1    3    3  501    0  0.36213616202E+02 -0.29117959257E+03 -0.66069847582E+03  0.72292424020E+03  0.00000000000E+00 0.  1.
         21    1    1    2  502  501  0.13526825146E-02  0.63217453559E-03  0.14781561369E-01  0.14856781318E-01  0.00000000000E+00 0. -1.
<mgrwt>
<rscale>  1 0.63546457E+03</rscale>
<asrwt>0</asrwt>
<pdfrwt beam="1">  1        1 0.36715942E+00 0.63546457E+03</pdfrwt>
<pdfrwt beam="2">0</pdfrwt>
<totfact> 0.18738843E+00</totfact>
</mgrwt>
</event>
<event>
 6    1  0.2922874E-003  0.6456294E+03  0.7818608E-02  0.9815015E-01
          1   -1    0    0  502    0  0.00000000000E+00  0.00000000000E+00  0.10487818760E+03  0.10487818760E+03  0.00000000000E+00 0.  1.
         13   -1    0    0    0    0 -0.00000000000E+00 -0.00000000000E+00 -0.10000000000E+04  0.10000000000E+04  0.00000000000E+00 0.  1.
    9000005    2    1    2  501    0  0.70289150196E+00 -0.20796249040E+00 -0.89556150013E+03  0.11040234185E+04  0.64562897305E+03 0.  0.
         13    1    3    3    0    0  0.12216440444E+02  0.32248135779E+03 -0.44309108194E+03  0.54815433450E+03  0.00000000000E+00 0.  1.
          3    1    3    3  501    0 -0.11513548942E+02 -0.32268932029E+03 -0.45247041819E+03  0.55586908402E+03  0.00000000000E+00 0.  1.
         21    1    1    2  502  501 -0.70289150196E+00  0.20796249040E+00  0.43968772731E+00  0.85476906734E+00  0.00000000000E+00 0.  1.
<mgrwt>
<rscale>  1 0.64562939E+03</rscale>
<asrwt>0</asrwt>
<pdfrwt beam="1">  1        1 0.38137603E+00 0.64562939E+03</pdfrwt>
<pdfrwt beam="2">0</pdfrwt>
<totfact> 0.16194854E+00</totfact>
</mgrwt>
</event>
<event>
 6    1  0.2922874E-003  0.6535430E+03  0.7818608E-02  0.9800154E-01
          1   -1    0    0  502    0  0.00000000000E+00  0.00000000000E+00  0.10944869009E+03  0.10944869009E+03  0.00000000000E+00 0.  1.
         13   -1    0    0    0    0 -0.00000000000E+00 -0.00000000000E+00 -0.10000000000E+04  0.10000000000E+04  0.00000000000E+00 0.  1.
    9000005    2    1    2  501    0 -0.60856862803E+01  0.14190295345E+01 -0.88828734690E+03  0.11028022812E+04  0.65351313038E+03 0.  0.
         13    1    3    3    0    0  0.11312470114E+03 -0.22737448321E+03 -0.78473844499E+03  0.82480954205E+03  0.00000000000E+00 0.  1.
          1    1    3    3  501    0 -0.11921038742E+03  0.22879351274E+03 -0.10354890191E+03  0.27799273916E+03  0.00000000000E+00 0.  1.
         21    1    1    2  502  501  0.60856862803E+01 -0.14190295345E+01 -0.22639630145E+01  0.66464088689E+01  0.00000000000E+00 0.  1.
<mgrwt>
<rscale>  1 0.65354301E+03</rscale>
<asrwt>0</asrwt>
<pdfrwt beam="1">  1        1 0.39799608E+00 0.65354301E+03</pdfrwt>
<pdfrwt beam="2">0</pdfrwt>
<totfact> 0.13647435E+00</totfact>
</mgrwt>
</event>
<event>
 6    1  0.2922874E-003  0.6487104E+03  0.7818608E-02  0.9809202E-01
          1   -1    0    0  502    0  0.00000000000E+00  0.00000000000E+00  0.10522259408E+03  0.10522259408E+03  0.00000000000E+00 0.  1.
         13   -1    0    0    0    0 -0.00000000000E+00 -0.00000000000E+00 -0.10000000000E+04  0.10000000000E+04  0.00000000000E+00 0.  1.
    9000005    2    1    2  501    0 -0.28985416526E-03  0.91020127371E-04 -0.89479369631E+03  0.11052063009E+04  0.64871041961E+03 0.  0.
         13    1    3    3    0    0  0.16830839873E+02  0.18635399896E+03  0.39872303509E+01  0.18715498418E+03  0.00000000000E+00 0.  1.
          1    1    3    3  501    0 -0.16831129728E+02 -0.18635390793E+03 -0.89878092666E+03  0.91805131668E+03  0.00000000000E+00 0.  1.
         21    1    1    2  502  501  0.28985416526E-03 -0.91020127378E-04  0.16290389380E-01  0.16293222095E-01  0.00000000000E+00 0.  1.
<mgrwt>
<rscale>  1 0.64871042E+03</rscale>
<asrwt>0</asrwt>
<pdfrwt beam="1">  1        1 0.38262842E+00 0.64871042E+03</pdfrwt>
<pdfrwt beam="2">0</pdfrwt>
<totfact> 0.15980828E+00</totfact>
</mgrwt>
</event>
<event>
 6    1  0.2922874E-003  0.6414596E+03  0.7818608E-02  0.9822938E-01
          1   -1    0    0  502    0  0.00000000000E+00  0.00000000000E+00  0.10286785481E+03  0.10286785481E+03  0.00000000000E+00 0.  1.
         13   -1    0    0    0    0 -0.00000000000E+00 -0.00000000000E+00 -0.10000000000E+04  0.10000000000E+04  0.00000000000E+00 0.  1.
    9000005    2    1    2  501    0  0.75712263822E-04  0.73721844139E-04 -0.89713238051E+03  0.11028675969E+04  0.64145960748E+03 0.  0.
         13    1    3    3    0    0 -0.71228094084E+02  0.58649633232E+02 -0.97668921890E+03  0.98103774198E+03  0.00000000000E+00 0.  1.
          3    1    3    3  501    0  0.71228169796E+02 -0.58649559510E+02  0.79556838394E+02  0.12182985487E+03  0.00000000000E+00 0.  1.
         21    1    1    2  502  501 -0.75712263829E-04 -0.73721844139E-04  0.23532043086E-03  0.25795922619E-03  0.00000000000E+00 0.  1.
<mgrwt>
<rscale>  1 0.64145961E+03</rscale>
<asrwt>0</asrwt>
<pdfrwt beam="1">  1        1 0.37406572E+00 0.64145961E+03</pdfrwt>
<pdfrwt beam="2">0</pdfrwt>
<totfact> 0.17455343E+00</totfact>
</mgrwt>
</event>
<event>
 6    1  0.2922874E-003  0.6508873E+03  0.7818608E-02  0.9805116E-01
          1   -1    0    0  502    0  0.00000000000E+00  0.00000000000E+00  0.13042568183E+03  0.13042568183E+03  0.00000000000E+00 0.  1.
         13   -1    0    0    0    0 -0.00000000000E+00 -0.00000000000E+00 -0.10000000000E+04  0.10000000000E+04  0.00000000000E+00 0.  1.
    9000005    2    1    2  501    0 -0.37639422939E+00 -0.44430131805E+00 -0.89408260193E+03  0.11059104815E+04  0.65088705230E+03 0.  0.
         13    1    3    3    0    0 -0.22817060302E+03 -0.13010654808E+03 -0.12022092809E+03  0.28886434443E+03  0.00000000000E+00 0.  1.
          3    1    3    3  501    0  0.22779420879E+03  0.12966224676E+03 -0.77386167384E+03  0.81704613703E+03  0.00000000000E+00 0.  1.
         21    1    1    2  502  501  0.37639422939E+00  0.44430131805E+00  0.24508283756E+02  0.24515200365E+02  0.00000000000E+00 0.  1.
<mgrwt>
<rscale>  1 0.65088731E+03</rscale>
<asrwt>0</asrwt>
<pdfrwt beam="1">  1        1 0.47427621E+00 0.65088731E+03</pdfrwt>
<pdfrwt beam="2">0</pdfrwt>
<totfact> 0.61252687E-01</totfact>
</mgrwt>
</event>
<event>
 6    1  0.2922874E-003  0.6470972E+03  0.7818608E-02  0.9812241E-01
          1   -1    0    0  502    0  0.00000000000E+00  0.00000000000E+00  0.10468481208E+03  0.10468481208E+03  0.00000000000E+00 0.  1.
         13   -1    0    0    0    0 -0.00000000000E+00 -0.00000000000E+00 -0.10000000000E+04  0.10000000000E+04  0.00000000000E+00 0.  1.
    9000005    2    1    2  501    0 -0.55711458344E-05  0.25643958764E-04 -0.89531629763E+03  0.11046837021E+04  0.64709721743E+03 0.  0.
         13    1    3    3    0    0  0.19887490337E+03 -0.18449044981E+03 -0.74869444794E+03  0.79632363373E+03  0.00000000000E+00 0.  1.
          3    1    3    3  501    0 -0.19887490894E+03  0.18449047545E+03 -0.14662184968E+03  0.30836006833E+03  0.00000000000E+00 0.  1.
         21    1    1    2  502  501  0.55711458357E-05 -0.25643958778E-04  0.11097012104E-02  0.11100114534E-02  0.00000000000E+00 0.  1.
<mgrwt>
<rscale>  1 0.64709722E+03</rscale>
<asrwt>0</asrwt>
<pdfrwt beam="1">  1        1 0.38067285E+00 0.64709722E+03</pdfrwt>
<pdfrwt beam="2">0</pdfrwt>
<totfact> 0.16306611E+00</totfact>
</mgrwt>
</event>
<event>
 6    1  0.2922874E-003  0.5941145E+03  0.7818608E-02  0.9917692E-01
          1   -1    0    0  502    0  0.00000000000E+00  0.00000000000E+00  0.92347505793E+02  0.92347505793E+02  0.00000000000E+00 0.  1.
         13   -1    0    0    0    0 -0.00000000000E+00 -0.00000000000E+00 -0.10000000000E+04  0.10000000000E+04  0.00000000000E+00 0.  1.
    9000005    2    1    2  501    0  0.98980598612E+00  0.50758837982E+00 -0.91167483861E+03  0.10881741838E+04  0.59411346190E+03 0.  0.
         13    1    3    3    0    0 -0.14633115115E+03  0.22048408049E+03 -0.70273331166E+03  0.75090621442E+03  0.00000000000E+00 0.  1.
          1    1    3    3  501    0  0.14732095713E+03 -0.21997649211E+03 -0.20894152695E+03  0.33726796939E+03  0.00000000000E+00 0.  1.
         21    1    1    2  502  501 -0.98980598612E+00 -0.50758837982E+00  0.40223444010E+01  0.41733219782E+01  0.00000000000E+00 0.  1.
<mgrwt>
<rscale>  1 0.59411450E+03</rscale>
<asrwt>0</asrwt>
<pdfrwt beam="1">  1        1 0.33580982E+00 0.59411450E+03</pdfrwt>
<pdfrwt beam="2">0</pdfrwt>
<totfact> 0.25861857E+00</totfact>
</mgrwt>
</event>
<event>
 6    1  0.3923277E-003  0.4915621E+03  0.7818608E-02  0.1016005E+00
          1   -1    0    0  502    0  0.00000000000E+00  0.00000000000E+00  0.60408342311E+02  0.60408342311E+02  0.00000000000E+00 0.  1.
         13   -1    0    0    0    0 -0.00000000000E+00 -0.00000000000E+00 -0.10000000000E+04  0.10000000000E+04  0.00000000000E+00 0.  1.
    9000005    2    1    2  501    0  0.11840099276E-04  0.15078919514E-04 -0.93959165563E+03  0.10604083230E+04  0.49156213464E+03 0.  0.
         13    1    3    3    0    0 -0.78330537806E+02  0.17978839946E+02 -0.97085393832E+03  0.97417466678E+03  0.00000000000E+00 0.  1.
          1    1    3    3  501    0  0.78330549646E+02 -0.17978824867E+02  0.31262282689E+02  0.86233656250E+02  0.00000000000E+00 0.  1.
         21    1    1    2  502  501 -0.11840099271E-04 -0.15078919513E-04 -0.20557746586E-05  0.19281804217E-04  0.00000000000E+00 0.  1.
<mgrwt>
<rscale>  1 0.49156213E+03</rscale>
<asrwt>0</asrwt>
<pdfrwt beam="1">  1        1 0.21966716E+00 0.49156213E+03</pdfrwt>
<pdfrwt beam="2">0</pdfrwt>
<totfact> 0.84025438E+00</totfact>
</mgrwt>
</event>
<event>
 6    1  0.2922874E-003  0.6704537E+03  0.7818608E-02  0.9769139E-01
          1   -1    0    0  502    0  0.00000000000E+00  0.00000000000E+00  0.11437080987E+03  0.11437080987E+03  0.00000000000E+00 0.  1.
         13   -1    0    0    0    0 -0.00000000000E+00 -0.00000000000E+00 -0.10000000000E+04  0.10000000000E+04  0.00000000000E+00 0.  1.
    9000005    2    1    2  501    0 -0.92895375859E-01  0.11288189424E+00 -0.88761998367E+03  0.11123746559E+04  0.67045366600E+03 0.  0.
         13    1    3    3    0    0  0.11727805492E+03 -0.23841595872E+03 -0.78271498853E+03  0.82658276343E+03  0.00000000000E+00 0.  1.
          1    1    3    3  501    0 -0.11737095030E+03  0.23852884062E+03 -0.10490499514E+03  0.28579189244E+03  0.00000000000E+00 0.  1.
         21    1    1    2  502  501  0.92895375859E-01 -0.11288189424E+00  0.19907935311E+01  0.19961539911E+01  0.00000000000E+00 0.  1.
<mgrwt>
<rscale>  1 0.67045368E+03</rscale>
<asrwt>0</asrwt>
<pdfrwt beam="1">  1        1 0.41589473E+00 0.67045368E+03</pdfrwt>
<pdfrwt beam="2">0</pdfrwt>
<totfact> 0.11311710E+00</totfact>
</mgrwt>
</event>
<event>
 6    1  0.2922874E-003  0.6385165E+03  0.7818608E-02  0.9828569E-01
          1   -1    0    0  502    0  0.00000000000E+00  0.00000000000E+00  0.11412309001E+03  0.11412309001E+03  0.00000000000E+00 0.  1.
         13   -1    0    0    0    0 -0.00000000000E+00 -0.00000000000E+00 -0.10000000000E+04  0.10000000000E+04  0.00000000000E+00 0.  1.
    9000005    2    1    2  501    0 -0.26722683124E+02 -0.19674548425E+02 -0.86415601346E+03  0.10744621899E+04  0.63765366174E+03 0.  0.
         13    1    3    3    0    0  0.22464413122E+03 -0.18098996144E+03 -0.63680150045E+03  0.69909834988E+03  0.00000000000E+00 0.  1.
          1    1    3    3  501    0 -0.25136681434E+03  0.16131541301E+03 -0.22735451301E+03  0.37536384004E+03  0.00000000000E+00 0.  1.
         21    1    1    2  502  501  0.26722683124E+02  0.19674548425E+02 -0.21720896534E+02  0.39660900082E+02  0.00000000000E+00 0.  1.
<mgrwt>
<rscale>  1 0.63851655E+03</rscale>
<asrwt>0</asrwt>
<pdfrwt beam="1">  1        1 0.41499393E+00 0.63851655E+03</pdfrwt>
<pdfrwt beam="2">0</pdfrwt>
<totfact> 0.11489015E+00</totfact>
</mgrwt>
</event>
<event>
 6    1  0.2922874E-003  0.6544725E+03  0.7818608E-02  0.9798423E-01
          3   -1    0    0  502    0  0.00000000000E+00  0.00000000000E+00  0.10740887627E+03  0.10740887627E+03  0.00000000000E+00 0.  1.
         13   -1    0    0    0    0 -0.00000000000E+00 -0.00000000000E+00 -0.10000000000E+04  0.10000000000E+04  0.00000000000E+00 0.  1.
    9000005    2    1    2  501    0 -0.58591939192E+00 -0.18459045714E+00 -0.89255688807E+03  0.11067936143E+04  0.65447225221E+03 0.  0.
         13    1    3    3    0    0 -0.15117220559E+03  0.23272372390E+03 -0.73984821506E+03  0.79018273123E+03  0.00000000000E+00 0.  1.
          1    1    3    3  501    0  0.15058628620E+03 -0.23290831436E+03 -0.15270867301E+03  0.31661088311E+03  0.00000000000E+00 0.  1.
         21    1    1    2  502  501  0.58591939192E+00  0.18459045714E+00 -0.34235661254E-01  0.61526193706E+00  0.00000000000E+00 0. -1.
<mgrwt>
<rscale>  1 0.65447254E+03</rscale>
<asrwt>0</asrwt>
<pdfrwt beam="1">  1        3 0.39057856E+00 0.65447254E+03</pdfrwt>
<pdfrwt beam="2">0</pdfrwt>
<totfact> 0.66334309E-02</totfact>
</mgrwt>
</event>
<event>
 6    1  0.2922874E-003  0.6617727E+03  0.7818608E-02  0.9784936E-01
          1   -1    0    0  502    0  0.00000000000E+00  0.00000000000E+00  0.10952048581E+03  0.10952048581E+03  0.00000000000E+00 0.  1.
         13   -1    0    0    0    0 -0.00000000000E+00 -0.00000000000E+00 -0.10000000000E+04  0.10000000000E+04  0.00000000000E+00 0.  1.
    9000005    2    1    2  501    0 -0.21603316754E-02 -0.10074450110E-03 -0.89051419762E+03  0.11094857350E+04  0.66177266492E+03 0.  0.
         13    1    3    3    0    0 -0.27489633354E+03 -0.11912951098E+03 -0.68072981238E+03  0.74374250386E+03  0.00000000000E+00 0.  1.
          3    1    3    3  501    0  0.27489417321E+03  0.11912941024E+03 -0.20978438524E+03  0.36574323116E+03  0.00000000000E+00 0.  1.
         21    1    1    2  502  501  0.21603316754E-02  0.10074450110E-03  0.34683436621E-01  0.34750797951E-01  0.00000000000E+00 0. -1.
<mgrwt>
<rscale>  1 0.66177266E+03</rscale>
<asrwt>0</asrwt>
<pdfrwt beam="1">  1        1 0.39825715E+00 0.66177266E+03</pdfrwt>
<pdfrwt beam="2">0</pdfrwt>
<totfact> 0.13589936E+00</totfact>
</mgrwt>
</event>
<event>
 6    1  0.2922874E-003  0.5665320E+03  0.7818608E-02  0.9977382E-01
          1   -1    0    0  502    0  0.00000000000E+00  0.00000000000E+00  0.80330948852E+02  0.80330948852E+02  0.00000000000E+00 0.  1.
         13   -1    0    0    0    0 -0.00000000000E+00 -0.00000000000E+00 -0.10000000000E+04  0.10000000000E+04  0.00000000000E+00 0.  1.
    9000005    2    1    2  501    0  0.10667260119E-01 -0.11214796780E-01 -0.91975966338E+03  0.10802390242E+04  0.56653200334E+03 0.  0.
         13    1    3    3    0    0 -0.10422214356E+03 -0.26318885045E+03 -0.47995967140E+03  0.55721801153E+03  0.00000000000E+00 0.  1.
          1    1    3    3  501    0  0.10423281082E+03  0.26317763565E+03 -0.43979999198E+03  0.52302101268E+03  0.00000000000E+00 0.  1.
         21    1    1    2  502  501 -0.10667260119E-01  0.11214796780E-01  0.90612235339E-01  0.91924639234E-01  0.00000000000E+00 0. -1.
<mgrwt>
<rscale>  1 0.56653200E+03</rscale>
<asrwt>0</asrwt>
<pdfrwt beam="1">  1        1 0.29211316E+00 0.56653200E+03</pdfrwt>
<pdfrwt beam="2">0</pdfrwt>
<totfact> 0.40141647E+00</totfact>
</mgrwt>
</event>
<event>
 6    1  0.2922874E-003  0.6678832E+03  0.7818608E-02  0.9773789E-01
          1   -1    0    0  502    0  0.00000000000E+00  0.00000000000E+00  0.11151704129E+03  0.11151704129E+03  0.00000000000E+00 0.  1.
         13   -1    0    0    0    0 -0.00000000000E+00 -0.00000000000E+00 -0.10000000000E+04  0.10000000000E+04  0.00000000000E+00 0.  1.
    9000005    2    1    2  501    0 -0.62411937449E-05 -0.18087214812E-04 -0.88848301376E+03  0.11115169830E+04  0.66788317674E+03 0.  0.
         13    1    3    3    0    0  0.18351035540E+03  0.16642858657E+03 -0.81690631849E+03  0.85364539368E+03  0.00000000000E+00 0.  1.
          3    1    3    3  501    0 -0.18351036164E+03 -0.16642860466E+03 -0.71576695276E+02  0.25787158933E+03  0.00000000000E+00 0.  1.
         21    1    1    2  502  501  0.62411937354E-05  0.18087214792E-04  0.55058390855E-04  0.58288302786E-04  0.00000000000E+00 0. -1.
<mgrwt>
<rscale>  1 0.66788318E+03</rscale>
<asrwt>0</asrwt>
<pdfrwt beam="1">  1        1 0.40551737E+00 0.66788318E+03</pdfrwt>
<pdfrwt beam="2">0</pdfrwt>
<totfact> 0.12598209E+00</totfact>
</mgrwt>
</event>
<event>
 6    1  0.2922874E-003  0.6552478E+03  0.7818608E-02  0.9796982E-01
          1   -1    0    0  502    0  0.00000000000E+00  0.00000000000E+00  0.10755469848E+03  0.10755469848E+03  0.00000000000E+00 0.  1.
         13   -1    0    0    0    0 -0.00000000000E+00 -0.00000000000E+00 -0.10000000000E+04  0.10000000000E+04  0.00000000000E+00 0.  1.
    9000005    2    1    2  501    0 -0.32944080953E-01  0.21993339475E-02 -0.89266119642E+03  0.11073362934E+04  0.65524778069E+03 0.  0.
         13    1    3    3    0    0 -0.78328470112E+02 -0.23842348661E+03 -0.90407226658E+02  0.26674814869E+03  0.00000000000E+00 0.  1.
          3    1    3    3  501    0  0.78295526031E+02  0.23842568594E+03 -0.80225396976E+03  0.84058814476E+03  0.00000000000E+00 0.  1.
         21    1    1    2  502  501  0.32944080953E-01 -0.21993339474E-02  0.21589489911E+00  0.21840502970E+00  0.00000000000E+00 0. -1.
<mgrwt>
<rscale>  1 0.65524778E+03</rscale>
<asrwt>0</asrwt>
<pdfrwt beam="1">  1        1 0.39110882E+00 0.65524778E+03</pdfrwt>
<pdfrwt beam="2">0</pdfrwt>
<totfact> 0.14639522E+00</totfact>
</mgrwt>
</event>
<event>
 6    1  0.2922874E-003  0.6429742E+03  0.7818608E-02  0.9820053E-01
          1   -1    0    0  502    0  0.00000000000E+00  0.00000000000E+00  0.10356459154E+03  0.10356459154E+03  0.00000000000E+00 0.  1.
         13   -1    0    0    0    0 -0.00000000000E+00 -0.00000000000E+00 -0.10000000000E+04  0.10000000000E+04  0.00000000000E+00 0.  1.
    9000005    2    1    2  501    0  0.28940958766E-01  0.80219474408E-01 -0.89663648147E+03  0.11033461811E+04  0.64297418944E+03 0.  0.
         13    1    3    3    0    0 -0.11041033371E+03  0.10675623352E+03 -0.93299687432E+03  0.94555301421E+03  0.00000000000E+00 0.  1.
          1    1    3    3  501    0  0.11043927467E+03 -0.10667601405E+03  0.36360392852E+02  0.15779316694E+03  0.00000000000E+00 0.  1.
         21    1    1    2  502  501 -0.28940958766E-01 -0.80219474408E-01  0.20107301271E+00  0.21841039263E+00  0.00000000000E+00 0.  1.
<mgrwt>
<rscale>  1 0.64297420E+03</rscale>
<asrwt>0</asrwt>
<pdfrwt beam="1">  1        1 0.37659931E+00 0.64297420E+03</pdfrwt>
<pdfrwt beam="2">0</pdfrwt>
<totfact> 0.17008028E+00</totfact>
</mgrwt>
</event>
<event>
 6    1  0.2922874E-003  0.6394888E+03  0.7818608E-02  0.9826705E-01
          1   -1    0    0  502    0  0.00000000000E+00  0.00000000000E+00  0.10268636678E+03  0.10268636678E+03  0.00000000000E+00 0.  1.
         13   -1    0    0    0    0 -0.00000000000E+00 -0.00000000000E+00 -0.10000000000E+04  0.10000000000E+04  0.00000000000E+00 0.  1.
    9000005    2    1    2  501    0  0.34724513655E-01  0.15854820796E-01 -0.89776262675E+03  0.11022357535E+04  0.63948879645E+03 0.  0.
         13    1    3    3    0    0 -0.24096559437E+03 -0.20556516799E+03 -0.37365778415E+03  0.48983833620E+03  0.00000000000E+00 0.  1.
          1    1    3    3  501    0  0.24100031888E+03  0.20558102281E+03 -0.52410484260E+03  0.61239741727E+03  0.00000000000E+00 0.  1.
         21    1    1    2  502  501 -0.34724513655E-01 -0.15854820796E-01  0.44899352605E+00  0.45061330831E+00  0.00000000000E+00 0.  1.
<mgrwt>
<rscale>  1 0.63948880E+03</rscale>
<asrwt>0</asrwt>
<pdfrwt beam="1">  1        1 0.37340576E+00 0.63948880E+03</pdfrwt>
<pdfrwt beam="2">0</pdfrwt>
<totfact> 0.17578758E+00</totfact>
</mgrwt>
</event>
<event>
 6    1  0.2922874E-003  0.6483267E+03  0.7818608E-02  0.9809924E-01
          1   -1    0    0  502    0  0.00000000000E+00  0.00000000000E+00  0.11056405763E+03  0.11056405763E+03  0.00000000000E+00 0.  1.
         13   -1    0    0    0    0 -0.00000000000E+00 -0.00000000000E+00 -0.10000000000E+04  0.10000000000E+04  0.00000000000E+00 0.  1.
    9000005    2    1    2  501    0 -0.18900362573E+01  0.16226435907E+00 -0.89473620833E+03  0.11049345473E+04  0.64832389502E+03 0.  0.
         13    1    3    3    0    0  0.16703994398E+03 -0.22470722561E+03 -0.72317426596E+03  0.77548481550E+03  0.00000000000E+00 0.  1.
          1    1    3    3  501    0 -0.16892998024E+03  0.22486948997E+03 -0.17156194237E+03  0.32944973184E+03  0.00000000000E+00 0.  1.
         21    1    1    2  502  501  0.18900362573E+01 -0.16226435907E+00  0.53002659657E+01  0.56295102881E+01  0.00000000000E+00 0. -1.
<mgrwt>
<rscale>  1 0.64832667E+03</rscale>
<asrwt>0</asrwt>
<pdfrwt beam="1">  1        1 0.40205197E+00 0.64832667E+03</pdfrwt>
<pdfrwt beam="2">0</pdfrwt>
<totfact> 0.13103961E+00</totfact>
</mgrwt>
</event>
<event>
 6    1  0.2922874E-003  0.6627704E+03  0.7818608E-02  0.9783107E-01
          1   -1    0    0  502    0  0.00000000000E+00  0.00000000000E+00  0.10981615905E+03  0.10981615905E+03  0.00000000000E+00 0.  1.
         13   -1    0    0    0    0 -0.00000000000E+00 -0.00000000000E+00 -0.10000000000E+04  0.10000000000E+04  0.00000000000E+00 0.  1.
    9000005    2    1    2  501    0  0.18848429801E-04  0.23767148534E-04 -0.89018374053E+03  0.11098160541E+04  0.66277038417E+03 0.  0.
         13    1    3    3    0    0 -0.66180384746E+00 -0.87714988611E+02 -0.98020684792E+03  0.98412388545E+03  0.00000000000E+00 0.  1.
          3    1    3    3  501    0  0.66182269589E+00  0.87715012379E+02  0.90023107392E+02  0.12569216869E+03  0.00000000000E+00 0.  1.
         21    1    1    2  502  501 -0.18848429801E-04 -0.23767148526E-04 -0.10042384690E-03  0.10490514611E-03  0.00000000000E+00 0. -1.
<mgrwt>
<rscale>  1 0.66277038E+03</rscale>
<asrwt>0</asrwt>
<pdfrwt beam="1">  1        1 0.39933233E+00 0.66277038E+03</pdfrwt>
<pdfrwt beam="2">0</pdfrwt>
<totfact> 0.13438325E+00</totfact>
</mgrwt>
</event>
<event>
 6    1  0.2922874E-003  0.6287724E+03  0.7818608E-02  0.9847447E-01
          1   -1    0    0  502    0  0.00000000000E+00  0.00000000000E+00  0.98838851672E+02  0.98838851672E+02  0.00000000000E+00 0.  1.
         13   -1    0    0    0    0 -0.00000000000E+00 -0.00000000000E+00 -0.10000000000E+04  0.10000000000E+04  0.00000000000E+00 0.  1.
    9000005    2    1    2  501    0  0.20661255320E-05  0.75524545196E-05 -0.90116131946E+03  0.10988386804E+04  0.62877239264E+03 0.  0.
         13    1    3    3    0    0  0.81223413062E+02  0.27851588457E+03 -0.66225128968E+03  0.72301114201E+03  0.00000000000E+00 0.  1.
          1    1    3    3  501    0 -0.81223410995E+02 -0.27851587702E+03 -0.23891002978E+03  0.37582753834E+03  0.00000000000E+00 0.  1.
         21    1    1    2  502  501 -0.20661255398E-05 -0.75524545042E-05  0.17113601463E-03  0.17131504297E-03  0.00000000000E+00 0. -1.
<mgrwt>
<rscale>  1 0.62877239E+03</rscale>
<asrwt>0</asrwt>
<pdfrwt beam="1">  1        1 0.35941476E+00 0.62877239E+03</pdfrwt>
<pdfrwt beam="2">0</pdfrwt>
<totfact> 0.20285472E+00</totfact>
</mgrwt>
</event>
<event>
 6    1  0.2922874E-003  0.6548508E+03  0.7818608E-02  0.9797719E-01
          1   -1    0    0  502    0  0.00000000000E+00  0.00000000000E+00  0.11225088677E+03  0.11225088677E+03  0.00000000000E+00 0.  1.
         13   -1    0    0    0    0 -0.00000000000E+00 -0.00000000000E+00 -0.10000000000E+04  0.10000000000E+04  0.00000000000E+00 0.  1.
    9000005    2    1    2  501    0  0.80351532502E-01 -0.73840979732E+00 -0.89276232596E+03  0.11071829476E+04  0.65485033184E+03 0.  0.
         13    1    3    3    0    0 -0.32559382616E+02 -0.97186481141E+02 -0.97248067662E+03  0.97786706250E+03  0.00000000000E+00 0.  1.
          3    1    3    3  501    0  0.32639734148E+02  0.96448071344E+02  0.79718350657E+02  0.12931588511E+03  0.00000000000E+00 0.  1.
         21    1    1    2  502  501 -0.80351532502E-01  0.73840979732E+00  0.50132127345E+01  0.50679391589E+01  0.00000000000E+00 0.  1.
<mgrwt>
<rscale>  1 0.65485075E+03</rscale>
<asrwt>0</asrwt>
<pdfrwt beam="1">  1        1 0.40818590E+00 0.65485075E+03</pdfrwt>
<pdfrwt beam="2">0</pdfrwt>
<totfact> 0.12286807E+00</totfact>
</mgrwt>
</event>
<event>
 6    1  0.2922874E-003  0.6480576E+03  0.7818608E-02  0.9810431E-01
          1   -1    0    0  502    0  0.00000000000E+00  0.00000000000E+00  0.10540533252E+03  0.10540533252E+03  0.00000000000E+00 0.  1.
         13   -1    0    0    0    0 -0.00000000000E+00 -0.00000000000E+00 -0.10000000000E+04  0.10000000000E+04  0.00000000000E+00 0.  1.
    9000005    2    1    2  501    0 -0.16798205508E-02 -0.20840686976E-01 -0.89500505491E+03  0.11049944128E+04  0.64805756195E+03 0.  0.
         13    1    3    3    0    0 -0.23300836934E+03  0.20744092516E+03 -0.29820329044E+03  0.43156672722E+03  0.00000000000E+00 0.  1.
          1    1    3    3  501    0  0.23300668952E+03 -0.20746176584E+03 -0.59680176447E+03  0.67342768560E+03  0.00000000000E+00 0.  1.
         21    1    1    2  502  501  0.16798205508E-02  0.20840686976E-01  0.41038742986E+00  0.41091969850E+00  0.00000000000E+00 0.  1.
<mgrwt>
<rscale>  1 0.64805756E+03</rscale>
<asrwt>0</asrwt>
<pdfrwt beam="1">  1        1 0.38329293E+00 0.64805756E+03</pdfrwt>
<pdfrwt beam="2">0</pdfrwt>
<totfact> 0.15875059E+00</totfact>
</mgrwt>
</event>
<event>
 6    1  0.2922874E-003  0.6685130E+03  0.7818608E-02  0.9772648E-01
          1   -1    0    0  502    0  0.00000000000E+00  0.00000000000E+00  0.11880999187E+03  0.11880999187E+03  0.00000000000E+00 0.  1.
         13   -1    0    0    0    0 -0.00000000000E+00 -0.00000000000E+00 -0.10000000000E+04  0.10000000000E+04  0.00000000000E+00 0.  1.
    9000005    2    1    2  501    0  0.15159384907E+02 -0.26712455808E+01 -0.87721438609E+03  0.11029119393E+04  0.66833578707E+03 0.  0.
         13    1    3    3    0    0 -0.21094111999E+03  0.86972536370E+02 -0.82256657661E+03  0.85362529903E+03  0.00000000000E+00 0.  1.
          1    1    3    3  501    0  0.22610050490E+03 -0.89643781951E+02 -0.54647809480E+02  0.24928664031E+03  0.00000000000E+00 0.  1.
         21    1    1    2  502  501 -0.15159384907E+02  0.26712455808E+01 -0.39756220319E+01  0.15898052530E+02  0.00000000000E+00 0. -1.
<mgrwt>
<rscale>  1 0.66851303E+03</rscale>
<asrwt>0</asrwt>
<pdfrwt beam="1">  1        1 0.43203725E+00 0.66851303E+03</pdfrwt>
<pdfrwt beam="2">0</pdfrwt>
<totfact> 0.95642664E-01</totfact>
</mgrwt>
</event>
<event>
 6    1  0.2922874E-003  0.6585474E+03  0.7818608E-02  0.9790871E-01
          1   -1    0    0  502    0  0.00000000000E+00  0.00000000000E+00  0.10845018085E+03  0.10845018085E+03  0.00000000000E+00 0.  1.
         13   -1    0    0    0    0 -0.00000000000E+00 -0.00000000000E+00 -0.10000000000E+04  0.10000000000E+04  0.00000000000E+00 0.  1.
    9000005    2    1    2  501    0 -0.48408572252E-03  0.80331144119E-03 -0.89157881958E+03  0.11084211653E+04  0.65854740759E+03 0.  0.
         13    1    3    3    0    0  0.25605004042E+03 -0.80940613868E+02 -0.12507437722E+03  0.29623741493E+03  0.00000000000E+00 0.  1.
          3    1    3    3  501    0 -0.25605052450E+03  0.80941417180E+02 -0.76650444237E+03  0.81218375032E+03  0.00000000000E+00 0.  1.
         21    1    1    2  502  501  0.48408572249E-03 -0.80331144119E-03  0.29000436392E-01  0.29015598549E-01  0.00000000000E+00 0.  1.
<mgrwt>
<rscale>  1 0.65854741E+03</rscale>
<asrwt>0</asrwt>
<pdfrwt beam="1">  1        1 0.39436513E+00 0.65854741E+03</pdfrwt>
<pdfrwt beam="2">0</pdfrwt>
<totfact> 0.14151365E+00</totfact>
</mgrwt>
</event>
<event>
 6    1  0.2922874E-003  0.6487443E+03  0.7818608E-02  0.9809138E-01
          1   -1    0    0  502    0  0.00000000000E+00  0.00000000000E+00  0.10626291626E+03  0.10626291626E+03  0.00000000000E+00 0.  1.
         13   -1    0    0    0    0 -0.00000000000E+00 -0.00000000000E+00 -0.10000000000E+04  0.10000000000E+04  0.00000000000E+00 0.  1.
    9000005    2    1    2  501    0 -0.45981606930E+00  0.77090557290E+00 -0.89456548991E+03  0.11050414487E+04  0.64874369506E+03 0.  0.
         13    1    3    3    0    0 -0.13730443882E+03 -0.43784326389E+02 -0.94242216504E+03  0.95337773905E+03  0.00000000000E+00 0.  1.
          1    1    3    3  501    0  0.13684462275E+03  0.44555231962E+02  0.47856675128E+02  0.15166370965E+03  0.00000000000E+00 0.  1.
         21    1    1    2  502  501  0.45981606930E+00 -0.77090557290E+00  0.82840616641E+00  0.12214675585E+01  0.00000000000E+00 0. -1.
<mgrwt>
<rscale>  1 0.64874432E+03</rscale>
<asrwt>0</asrwt>
<pdfrwt beam="1">  1        1 0.38641142E+00 0.64874432E+03</pdfrwt>
<pdfrwt beam="2">0</pdfrwt>
<totfact> 0.15376883E+00</totfact>
</mgrwt>
</event>
<event>
 6    1  0.2922874E-003  0.6499392E+03  0.7818608E-02  0.9806893E-01
          1   -1    0    0  502    0  0.00000000000E+00  0.00000000000E+00  0.10602092040E+03  0.10602092040E+03  0.00000000000E+00 0.  1.
         13   -1    0    0    0    0 -0.00000000000E+00 -0.00000000000E+00 -0.10000000000E+04  0.10000000000E+04  0.00000000000E+00 0.  1.
    9000005    2    1    2  501    0 -0.65629097680E-02 -0.12129931728E-02 -0.89439474081E+03  0.11056052056E+04  0.64993916502E+03 0.  0.
         13    1    3    3    0    0 -0.52429195429E+02 -0.20482146355E+03 -0.86701023521E+03  0.89241660698E+03  0.00000000000E+00 0.  1.
          1    1    3    3  501    0  0.52422632519E+02  0.20482025055E+03 -0.27384505607E+02  0.21318859863E+03  0.00000000000E+00 0.  1.
         21    1    1    2  502  501  0.65629097680E-02  0.12129931728E-02  0.41566121754E+00  0.41571479514E+00  0.00000000000E+00 0.  1.
<mgrwt>
<rscale>  1 0.64993917E+03</rscale>
<asrwt>0</asrwt>
<pdfrwt beam="1">  1        1 0.38553143E+00 0.64993917E+03</pdfrwt>
<pdfrwt beam="2">0</pdfrwt>
<totfact> 0.15511944E+00</totfact>
</mgrwt>
</event>
<event>
 6    1  0.2922874E-003  0.6115534E+03  0.7818608E-02  0.9881722E-01
          1   -1    0    0  502    0  0.00000000000E+00  0.00000000000E+00  0.93621523379E+02  0.93621523379E+02  0.00000000000E+00 0.  1.
         13   -1    0    0    0    0 -0.00000000000E+00 -0.00000000000E+00 -0.10000000000E+04  0.10000000000E+04  0.00000000000E+00 0.  1.
    9000005    2    1    2  501    0 -0.49196360897E-03 -0.44839289800E-01 -0.90649609346E+03  0.10934956483E+04  0.61155340198E+03 0.  0.
         13    1    3    3    0    0  0.26955521184E+03  0.12553973432E+03 -0.58059373127E+03  0.65231075257E+03  0.00000000000E+00 0.  1.
          3    1    3    3  501    0 -0.26955570380E+03 -0.12558457361E+03 -0.32590236219E+03  0.44118489578E+03  0.00000000000E+00 0.  1.
         21    1    1    2  502  501  0.49196360897E-03  0.44839289800E-01  0.11761683876E+00  0.12587503604E+00  0.00000000000E+00 0. -1.
<mgrwt>
<rscale>  1 0.61155340E+03</rscale>
<asrwt>0</asrwt>
<pdfrwt beam="1">  1        1 0.34044262E+00 0.61155340E+03</pdfrwt>
<pdfrwt beam="2">0</pdfrwt>
<totfact> 0.24614682E+00</totfact>
</mgrwt>
</event>
<event>
 6    1  0.2922874E-003  0.5893044E+03  0.7818608E-02  0.9927848E-01
          1   -1    0    0  502    0  0.00000000000E+00  0.00000000000E+00  0.86820489225E+02  0.86820489225E+02  0.00000000000E+00 0.  1.
         13   -1    0    0    0    0 -0.00000000000E+00 -0.00000000000E+00 -0.10000000000E+04  0.10000000000E+04  0.00000000000E+00 0.  1.
    9000005    2    1    2  501    0 -0.19686460683E-03  0.74483932630E-03 -0.91317977085E+03  0.10868196761E+04  0.58930443275E+03 0.  0.
         13    1    3    3    0    0  0.14994135515E+03  0.24783194090E+03 -0.55619645510E+03  0.62710252558E+03  0.00000000000E+00 0.  1.
          3    1    3    3  501    0 -0.14994155201E+03 -0.24783119606E+03 -0.35698331575E+03  0.45971715052E+03  0.00000000000E+00 0.  1.
         21    1    1    2  502  501  0.19686460683E-03 -0.74483932631E-03  0.26007420078E-03  0.81312968545E-03  0.00000000000E+00 0. -1.
<mgrwt>
<rscale>  1 0.58930443E+03</rscale>
<asrwt>0</asrwt>
<pdfrwt beam="1">  1        1 0.31571154E+00 0.58930443E+03</pdfrwt>
<pdfrwt beam="2">0</pdfrwt>
<totfact> 0.31623515E+00</totfact>
</mgrwt>
</event>
<event>
 6    1  0.2922874E-003  0.6529720E+03  0.7818608E-02  0.9801218E-01
          1   -1    0    0  502    0  0.00000000000E+00  0.00000000000E+00  0.11242541774E+03  0.11242541774E+03  0.00000000000E+00 0.  1.
         13   -1    0    0    0    0 -0.00000000000E+00 -0.00000000000E+00 -0.10000000000E+04  0.10000000000E+04  0.00000000000E+00 0.  1.
    9000005    2    1    2  501    0  0.40554895122E-01 -0.21744505905E+00 -0.89340457409E+03  0.11065912313E+04  0.65297195283E+03 0.  0.
         13    1    3    3    0    0 -0.31750635236E+03 -0.52003006863E+02 -0.54070384016E+03  0.62918617219E+03  0.00000000000E+00 0.  1.
          3    1    3    3  501    0  0.31754690726E+03  0.51785561804E+02 -0.35270073393E+03  0.47740505908E+03  0.00000000000E+00 0.  1.
         21    1    1    2  502  501 -0.40554895122E-01  0.21744505905E+00  0.58299918275E+01  0.58341864695E+01  0.00000000000E+00 0.  1.
<mgrwt>
<rscale>  1 0.65297199E+03</rscale>
<asrwt>0</asrwt>
<pdfrwt beam="1">  1        1 0.40882056E+00 0.65297199E+03</pdfrwt>
<pdfrwt beam="2">0</pdfrwt>
<totfact> 0.12211057E+00</totfact>
</mgrwt>
</event>
<event>
 6    1  0.2922874E-003  0.6318905E+03  0.7818608E-02  0.9841366E-01
          1   -1    0    0  502    0  0.00000000000E+00  0.00000000000E+00  0.99822223392E+02  0.99822223392E+02  0.00000000000E+00 0.  1.
         13   -1    0    0    0    0 -0.00000000000E+00 -0.00000000000E+00 -0.10000000000E+04  0.10000000000E+04  0.00000000000E+00 0.  1.
    9000005    2    1    2  501    0 -0.22483058751E-03  0.12849759874E-03 -0.90017856105E+03  0.10998213973E+04  0.63189054766E+03 0.  0.
         13    1    3    3    0    0  0.28731039132E+03  0.12686710824E+03 -0.50984887182E+03  0.59882250810E+03  0.00000000000E+00 0.  1.
          1    1    3    3  501    0 -0.28731061615E+03 -0.12686697974E+03 -0.39032968922E+03  0.50099888921E+03  0.00000000000E+00 0.  1.
         21    1    1    2  502  501  0.22483058756E-03 -0.12849759875E-03  0.78443853401E-03  0.82607762324E-03  0.00000000000E+00 0.  1.
<mgrwt>
<rscale>  1 0.63189055E+03</rscale>
<asrwt>0</asrwt>
<pdfrwt beam="1">  1        1 0.36299067E+00 0.63189055E+03</pdfrwt>
<pdfrwt beam="2">0</pdfrwt>
<totfact> 0.19556624E+00</totfact>
</mgrwt>
</event>
<event>
 6    1  0.2922874E-003  0.6486164E+03  0.7818608E-02  0.9809379E-01
          1   -1    0    0  502    0  0.00000000000E+00  0.00000000000E+00  0.10518003439E+03  0.10518003439E+03  0.00000000000E+00 0.  1.
         13   -1    0    0    0    0 -0.00000000000E+00 -0.00000000000E+00 -0.10000000000E+04  0.10000000000E+04  0.00000000000E+00 0.  1.
    9000005    2    1    2  501    0 -0.68149841092E-02  0.36028149798E-02 -0.89481991180E+03  0.11051723255E+04  0.64861636921E+03 0.  0.
         13    1    3    3    0    0  0.20672096289E+01  0.31121044187E+03 -0.60283766007E+03  0.67843161548E+03  0.00000000000E+00 0.  1.
          3    1    3    3  501    0 -0.20740246130E+01 -0.31120683905E+03 -0.29198225173E+03  0.42674071001E+03  0.00000000000E+00 0.  1.
         21    1    1    2  502  501  0.68149841092E-02 -0.36028149798E-02 -0.53812124147E-04  0.77089026412E-02  0.00000000000E+00 0. -1.
<mgrwt>
<rscale>  1 0.64861637E+03</rscale>
<asrwt>0</asrwt>
<pdfrwt beam="1">  1        1 0.38247366E+00 0.64861637E+03</pdfrwt>
<pdfrwt beam="2">0</pdfrwt>
<totfact> 0.16006284E+00</totfact>
</mgrwt>
</event>
<event>
 6    1  0.2922874E-003  0.6553978E+03  0.7818608E-02  0.9796703E-01
          1   -1    0    0  502    0  0.00000000000E+00  0.00000000000E+00  0.10739020682E+03  0.10739020682E+03  0.00000000000E+00 0.  1.
         13   -1    0    0    0    0 -0.00000000000E+00 -0.00000000000E+00 -0.10000000000E+04  0.10000000000E+04  0.00000000000E+00 0.  1.
    9000005    2    1    2  501    0  0.21043752519E-02 -0.16524970506E-02 -0.89261288489E+03  0.11073861181E+04  0.65539778167E+03 0.  0.
         13    1    3    3    0    0 -0.30259134256E+03  0.90647763909E+02 -0.59367431562E+03  0.67247879574E+03  0.00000000000E+00 0.  1.
          1    1    3    3  501    0  0.30259344693E+03 -0.90649416406E+02 -0.29893856927E+03  0.43490732233E+03  0.00000000000E+00 0.  1.
         21    1    1    2  502  501 -0.21043752519E-02  0.16524970506E-02  0.30917082823E-02  0.40887408582E-02  0.00000000000E+00 0.  1.
<mgrwt>
<rscale>  1 0.65539778E+03</rscale>
<asrwt>0</asrwt>
<pdfrwt beam="1">  1        1 0.39051067E+00 0.65539778E+03</pdfrwt>
<pdfrwt beam="2">0</pdfrwt>
<totfact> 0.14728843E+00</totfact>
</mgrwt>
</event>
<event>
 6    1  0.2922874E-003  0.6451089E+03  0.7818608E-02  0.9816001E-01
          1   -1    0    0  502    0  0.00000000000E+00  0.00000000000E+00  0.10404260282E+03  0.10404260282E+03  0.00000000000E+00 0.  1.
         13   -1    0    0    0    0 -0.00000000000E+00 -0.00000000000E+00 -0.10000000000E+04  0.10000000000E+04  0.00000000000E+00 0.  1.
    9000005    2    1    2  501    0 -0.19580201283E-02 -0.63572160576E-03 -0.89595759529E+03  0.11040405347E+04  0.64510889749E+03 0.  0.
         13    1    3    3    0    0  0.83698015452E+02  0.30754645526E+03 -0.36325355540E+03  0.48326320514E+03  0.00000000000E+00 0.  1.
          3    1    3    3  501    0 -0.83699973472E+02 -0.30754709099E+03 -0.53270403989E+03  0.62077732953E+03  0.00000000000E+00 0.  1.
         21    1    1    2  502  501  0.19580201283E-02  0.63572160573E-03  0.19811125929E-03  0.20681472032E-02  0.00000000000E+00 0.  1.
<mgrwt>
<rscale>  1 0.64510890E+03</rscale>
<asrwt>0</asrwt>
<pdfrwt beam="1">  1        1 0.37833754E+00 0.64510890E+03</pdfrwt>
<pdfrwt beam="2">0</pdfrwt>
<totfact> 0.16704130E+00</totfact>
</mgrwt>
</event>
<event>
 6    1  0.2922874E-003  0.6334229E+03  0.7818608E-02  0.9838392E-01
          1   -1    0    0  502    0  0.00000000000E+00  0.00000000000E+00  0.10398085902E+03  0.10398085902E+03  0.00000000000E+00 0.  1.
         13   -1    0    0    0    0 -0.00000000000E+00 -0.00000000000E+00 -0.10000000000E+04  0.10000000000E+04  0.00000000000E+00 0.  1.
    9000005    2    1    2  501    0 -0.11874911258E+00  0.26016386763E-01 -0.89969276550E+03  0.11003052237E+04  0.63342284309E+03 0.  0.
         13    1    3    3    0    0  0.15664529218E+03 -0.76585306190E+02 -0.90900197744E+03  0.92557422808E+03  0.00000000000E+00 0.  1.
          1    1    3    3  501    0 -0.15676404129E+03  0.76611322576E+02  0.93092119453E+01  0.17473099558E+03  0.00000000000E+00 0.  1.
         21    1    1    2  502  501  0.11874911258E+00 -0.26016386763E-01  0.36736245202E+01  0.36756353627E+01  0.00000000000E+00 0. -1.
<mgrwt>
<rscale>  1 0.63342285E+03</rscale>
<asrwt>0</asrwt>
<pdfrwt beam="1">  1        1 0.37811301E+00 0.63342285E+03</pdfrwt>
<pdfrwt beam="2">0</pdfrwt>
<totfact> 0.16778453E+00</totfact>
</mgrwt>
</event>
<event>
 6    1  0.2922874E-003  0.6495320E+03  0.7818608E-02  0.9807658E-01
          1   -1    0    0  502    0  0.00000000000E+00  0.00000000000E+00  0.10552275358E+03  0.10552275358E+03  0.00000000000E+00 0.  1.
         13   -1    0    0    0    0 -0.00000000000E+00 -0.00000000000E+00 -0.10000000000E+04  0.10000000000E+04  0.00000000000E+00 0.  1.
    9000005    2    1    2  501    0  0.64359470156E-03  0.19270525405E-02 -0.89452703589E+03  0.11054729227E+04  0.64953195827E+03 0.  0.
         13    1    3    3    0    0  0.29118702957E+03 -0.79336719453E+02 -0.24310884146E+03  0.38753852717E+03  0.00000000000E+00 0.  1.
          1    1    3    3  501    0 -0.29118638598E+03  0.79338646506E+02 -0.65141819443E+03  0.71793439550E+03  0.00000000000E+00 0.  1.
         21    1    1    2  502  501 -0.64359470152E-03 -0.19270525405E-02  0.49789469460E-01  0.49830904214E-01  0.00000000000E+00 0.  1.
<mgrwt>
<rscale>  1 0.64953196E+03</rscale>
<asrwt>0</asrwt>
<pdfrwt beam="1">  1        1 0.38371991E+00 0.64953196E+03</pdfrwt>
<pdfrwt beam="2">0</pdfrwt>
<totfact> 0.15801926E+00</totfact>
</mgrwt>
</event>
<event>
 6    1  0.2922874E-003  0.6500033E+03  0.7818608E-02  0.9806773E-01
          1   -1    0    0  502    0  0.00000000000E+00  0.00000000000E+00  0.10562619444E+03  0.10562619444E+03  0.00000000000E+00 0.  1.
         13   -1    0    0    0    0 -0.00000000000E+00 -0.00000000000E+00 -0.10000000000E+04  0.10000000000E+04  0.00000000000E+00 0.  1.
    9000005    2    1    2  501    0  0.18603545904E-04  0.50526646458E-05 -0.89437391811E+03  0.11056260802E+04  0.65000332608E+03 0.  0.
         13    1    3    3    0    0  0.19711254427E+02  0.14881801631E+02  0.10402749363E+03  0.10691922653E+03  0.00000000000E+00 0.  1.
          1    1    3    3  501    0 -0.19711235824E+02 -0.14881796578E+02 -0.99840141174E+03  0.99870685372E+03  0.00000000000E+00 0.  1.
         21    1    1    2  502  501 -0.18603545904E-04 -0.50526646471E-05  0.11255099095E-03  0.11418995973E-03  0.00000000000E+00 0. -1.
<mgrwt>
<rscale>  1 0.65000333E+03</rscale>
<asrwt>0</asrwt>
<pdfrwt beam="1">  1        1 0.38409606E+00 0.65000333E+03</pdfrwt>
<pdfrwt beam="2">0</pdfrwt>
<totfact> 0.15740168E+00</totfact>
</mgrwt>
</event>
<event>
 6    1  0.2922874E-003  0.6459489E+03  0.7818608E-02  0.9814411E-01
          1   -1    0    0  502    0  0.00000000000E+00  0.00000000000E+00  0.10448618794E+03  0.10448618794E+03  0.00000000000E+00 0.  1.
         13   -1    0    0    0    0 -0.00000000000E+00 -0.00000000000E+00 -0.10000000000E+04  0.10000000000E+04  0.00000000000E+00 0.  1.
    9000005    2    1    2  501    0 -0.34874840441E-02 -0.37895690256E-02 -0.89568744985E+03  0.11043124738E+04  0.64594893909E+03 0.  0.
         13    1    3    3    0    0  0.22798197654E+03  0.22860531848E+03 -0.46261342399E+03  0.56413416252E+03  0.00000000000E+00 0.  1.
          1    1    3    3  501    0 -0.22798546402E+03 -0.22860910805E+03 -0.43307402586E+03  0.54017831127E+03  0.00000000000E+00 0.  1.
         21    1    1    2  502  501  0.34874840441E-02  0.37895690256E-02  0.17363778996E+00  0.17371414876E+00  0.00000000000E+00 0. -1.
<mgrwt>
<rscale>  1 0.64594894E+03</rscale>
<asrwt>0</asrwt>
<pdfrwt beam="1">  1        1 0.37995058E+00 0.64594894E+03</pdfrwt>
<pdfrwt beam="2">0</pdfrwt>
<totfact> 0.16430195E+00</totfact>
</mgrwt>
</event>
<event>
 6    1  0.2922874E-003  0.6451378E+03  0.7818608E-02  0.9815946E-01
          3   -1    0    0  502    0  0.00000000000E+00  0.00000000000E+00  0.10406044430E+03  0.10406044430E+03  0.00000000000E+00 0.  1.
         13   -1    0    0    0    0 -0.00000000000E+00 -0.00000000000E+00 -0.10000000000E+04  0.10000000000E+04  0.00000000000E+00 0.  1.
    9000005    2    1    2  501    0 -0.25491740817E-01 -0.80002744625E-05 -0.89592538016E+03  0.11040312763E+04  0.64513779264E+03 0.  0.
         13    1    3    3    0    0 -0.14405490032E+03 -0.34154994632E+02  0.42480415280E+02  0.15402260758E+03  0.00000000000E+00 0.  1.
          1    1    3    3  501    0  0.14402940857E+03  0.34154986632E+02 -0.93840579544E+03  0.95000866868E+03  0.00000000000E+00 0.  1.
         21    1    1    2  502  501  0.25491740817E-01  0.80002744639E-05 -0.14175536376E-01  0.29168043222E-01  0.00000000000E+00 0.  1.
<mgrwt>
<rscale>  1 0.64513779E+03</rscale>
<asrwt>0</asrwt>
<pdfrwt beam="1">  1        3 0.37840241E+00 0.64513779E+03</pdfrwt>
<pdfrwt beam="2">0</pdfrwt>
<totfact> 0.77022415E-02</totfact>
</mgrwt>
</event>
<event>
 6    1  0.2922874E-003  0.6431816E+03  0.7818608E-02  0.9819658E-01
          1   -1    0    0  502    0  0.00000000000E+00  0.00000000000E+00  0.10347249341E+03  0.10347249341E+03  0.00000000000E+00 0.  1.
         13   -1    0    0    0    0 -0.00000000000E+00 -0.00000000000E+00 -0.10000000000E+04  0.10000000000E+04  0.00000000000E+00 0.  1.
    9000005    2    1    2  501    0 -0.15175518689E+00  0.37306502171E-01 -0.89623466966E+03  0.11031405674E+04  0.64318154816E+03 0.  0.
         13    1    3    3    0    0 -0.17355406070E+03 -0.14092462793E+03 -0.84472905046E+03  0.87381229760E+03  0.00000000000E+00 0.  1.
          3    1    3    3  501    0  0.17340230551E+03  0.14096193443E+03 -0.51505619196E+02  0.22932826979E+03  0.00000000000E+00 0.  1.
         21    1    1    2  502  501  0.15175518689E+00 -0.37306502171E-01 -0.29283693289E+00  0.33192601753E+00  0.00000000000E+00 0. -1.
<mgrwt>
<rscale>  1 0.64318157E+03</rscale>
<asrwt>0</asrwt>
<pdfrwt beam="1">  1        1 0.37626441E+00 0.64318157E+03</pdfrwt>
<pdfrwt beam="2">0</pdfrwt>
<totfact> 0.17065248E+00</totfact>
</mgrwt>
</event>
<event>
 6    1  0.2922874E-003  0.6611726E+03  0.7818608E-02  0.9786038E-01
          1   -1    0    0  502    0  0.00000000000E+00  0.00000000000E+00  0.10991259820E+03  0.10991259820E+03  0.00000000000E+00 0.  1.
         13   -1    0    0    0    0 -0.00000000000E+00 -0.00000000000E+00 -0.10000000000E+04  0.10000000000E+04  0.00000000000E+00 0.  1.
    9000005    2    1    2  501    0 -0.63085791431E-01 -0.12716597185E+00 -0.89070375672E+03  0.11092801076E+04  0.66117256044E+03 0.  0.
         13    1    3    3    0    0 -0.19993005992E+03  0.55132489619E+01 -0.37213918416E+01  0.20004067969E+03  0.00000000000E+00 0.  1.
          1    1    3    3  501    0  0.19986697412E+03 -0.56404149338E+01 -0.88698236488E+03  0.90923942789E+03  0.00000000000E+00 0.  1.
         21    1    1    2  502  501  0.63085791431E-01  0.12716597185E+00  0.61635492306E+00  0.63249062654E+00  0.00000000000E+00 0. -1.
<mgrwt>
<rscale>  1 0.66117258E+03</rscale>
<asrwt>0</asrwt>
<pdfrwt beam="1">  1        1 0.39968302E+00 0.66117258E+03</pdfrwt>
<pdfrwt beam="2">0</pdfrwt>
<totfact> 0.13394041E+00</totfact>
</mgrwt>
</event>
<event>
 6    1  0.2922874E-003  0.6473608E+03  0.7818608E-02  0.9811744E-01
          1   -1    0    0  502    0  0.00000000000E+00  0.00000000000E+00  0.10477309975E+03  0.10477309975E+03  0.00000000000E+00 0.  1.
         13   -1    0    0    0    0 -0.00000000000E+00 -0.00000000000E+00 -0.10000000000E+04  0.10000000000E+04  0.00000000000E+00 0.  1.
    9000005    2    1    2  501    0  0.15951579930E-03 -0.10395295271E-03 -0.89523100115E+03  0.11047689944E+04  0.64736078474E+03 0.  0.
         13    1    3    3    0    0  0.21416365988E+02  0.26197864312E+03 -0.12526943019E+03  0.29117675100E+03  0.00000000000E+00 0.  1.
          3    1    3    3  501    0 -0.21416206472E+02 -0.26197874707E+03 -0.76996157096E+03  0.81359224343E+03  0.00000000000E+00 0.  1.
         21    1    1    2  502  501 -0.15951579930E-03  0.10395295270E-03  0.41009013688E-02  0.41053189332E-02  0.00000000000E+00 0. -1.
<mgrwt>
<rscale>  1 0.64736078E+03</rscale>
<asrwt>0</asrwt>
<pdfrwt beam="1">  1        1 0.38099389E+00 0.64736078E+03</pdfrwt>
<pdfrwt beam="2">0</pdfrwt>
<totfact> 0.16252701E+00</totfact>
</mgrwt>
</event>
<event>
 6    1  0.2922874E-003  0.6534587E+03  0.7818608E-02  0.9800311E-01
          1   -1    0    0  502    0  0.00000000000E+00  0.00000000000E+00  0.10719777027E+03  0.10719777027E+03  0.00000000000E+00 0.  1.
         13   -1    0    0    0    0 -0.00000000000E+00 -0.00000000000E+00 -0.10000000000E+04  0.10000000000E+04  0.00000000000E+00 0.  1.
    9000005    2    1    2  501    0  0.45703724204E-01  0.25516309704E-01 -0.89324622597E+03  0.11067506992E+04  0.65345871114E+03 0.  0.
         13    1    3    3    0    0 -0.39186544128E+02 -0.30854835749E+03 -0.61601108626E+03  0.69007777282E+03  0.00000000000E+00 0.  1.
          1    1    3    3  501    0  0.39232247852E+02  0.30857387380E+03 -0.27723513970E+03  0.41667292634E+03  0.00000000000E+00 0.  1.
         21    1    1    2  502  501 -0.45703724204E-01 -0.25516309704E-01  0.44399623526E+00  0.44707110105E+00  0.00000000000E+00 0. -1.
<mgrwt>
<rscale>  1 0.65345871E+03</rscale>
<asrwt>0</asrwt>
<pdfrwt beam="1">  1        1 0.38981090E+00 0.65345871E+03</pdfrwt>
<pdfrwt beam="2">0</pdfrwt>
<totfact> 0.14839813E+00</totfact>
</mgrwt>
</event>
<event>
 6    1  0.2922874E-003  0.6498576E+03  0.7818608E-02  0.9807046E-01
          1   -1    0    0  502    0  0.00000000000E+00  0.00000000000E+00  0.10785009266E+03  0.10785009266E+03  0.00000000000E+00 0.  1.
         13   -1    0    0    0    0 -0.00000000000E+00 -0.00000000000E+00 -0.10000000000E+04  0.10000000000E+04  0.00000000000E+00 0.  1.
    9000005    2    1    2  501    0  0.31004176300E-01  0.17034709698E-02 -0.89442116039E+03  0.11055786274E+04  0.64985759068E+03 0.  0.
         13    1    3    3    0    0 -0.40883246463E+02  0.22369033440E+03 -0.52350635097E+02  0.23334394044E+03  0.00000000000E+00 0.  1.
          3    1    3    3  501    0  0.40914250639E+02 -0.22368863093E+03 -0.84207052529E+03  0.87223468693E+03  0.00000000000E+00 0.  1.
         21    1    1    2  502  501 -0.31004176300E-01 -0.17034709698E-02  0.22712530484E+01  0.22714652915E+01  0.00000000000E+00 0.  1.
<mgrwt>
<rscale>  1 0.64985759E+03</rscale>
<asrwt>0</asrwt>
<pdfrwt beam="1">  1        1 0.39218298E+00 0.64985759E+03</pdfrwt>
<pdfrwt beam="2">0</pdfrwt>
<totfact> 0.14494272E+00</totfact>
</mgrwt>
</event>
<event>
 6    1  0.2922874E-003  0.5998496E+03  0.7818608E-02  0.9905718E-01
          1   -1    0    0  502    0  0.00000000000E+00  0.00000000000E+00  0.89999131771E+02  0.89999131771E+02  0.00000000000E+00 0.  1.
         13   -1    0    0    0    0 -0.00000000000E+00 -0.00000000000E+00 -0.10000000000E+04  0.10000000000E+04  0.00000000000E+00 0.  1.
    9000005    2    1    2  501    0  0.16723368579E-01 -0.32428758796E-02 -0.91004330873E+03  0.10899534001E+04  0.59984963981E+03 0.  0.
         13    1    3    3    0    0 -0.83304066941E+02  0.17404349222E+03 -0.87223412512E+03  0.89332137206E+03  0.00000000000E+00 0.  1.
          3    1    3    3  501    0  0.83320790309E+02 -0.17404673509E+03 -0.37809183609E+02  0.19663202806E+03  0.00000000000E+00 0.  1.
         21    1    1    2  502  501 -0.16723368579E-01  0.32428758796E-02  0.42440502220E-01  0.45731646911E-01  0.00000000000E+00 0. -1.
<mgrwt>
<rscale>  1 0.59984964E+03</rscale>
<asrwt>0</asrwt>
<pdfrwt beam="1">  1        1 0.32727026E+00 0.59984964E+03</pdfrwt>
<pdfrwt beam="2">0</pdfrwt>
<totfact> 0.28132523E+00</totfact>
</mgrwt>
</event>
<event>
 6    1  0.2922874E-003  0.6456627E+03  0.7818608E-02  0.9814952E-01
          1   -1    0    0  502    0  0.00000000000E+00  0.00000000000E+00  0.10422615480E+03  0.10422615480E+03  0.00000000000E+00 0.  1.
         13   -1    0    0    0    0 -0.00000000000E+00 -0.00000000000E+00 -0.10000000000E+04  0.10000000000E+04  0.00000000000E+00 0.  1.
    9000005    2    1    2  501    0  0.72851674065E-03  0.17206097445E-02 -0.89577975017E+03  0.11042199613E+04  0.64566273086E+03 0.  0.
         13    1    3    3    0    0 -0.23872123535E+03  0.19307823645E+03 -0.27726957304E+03  0.41369729239E+03  0.00000000000E+00 0.  1.
          1    1    3    3  501    0  0.23872196387E+03 -0.19307651584E+03 -0.61851017713E+03  0.69052266887E+03  0.00000000000E+00 0.  1.
         21    1    1    2  502  501 -0.72851674066E-03 -0.17206097445E-02  0.59049772878E-02  0.61935443248E-02  0.00000000000E+00 0.  1.
<mgrwt>
<rscale>  1 0.64566273E+03</rscale>
<asrwt>0</asrwt>
<pdfrwt beam="1">  1        1 0.37900500E+00 0.64566273E+03</pdfrwt>
<pdfrwt beam="2">0</pdfrwt>
<totfact> 0.16589626E+00</totfact>
</mgrwt>
</event>
<event>
 6    1  0.2922874E-003  0.6495644E+03  0.7818608E-02  0.9807597E-01
          1   -1    0    0  502    0  0.00000000000E+00  0.00000000000E+00  0.10548354177E+03  0.10548354177E+03  0.00000000000E+00 0.  1.
         13   -1    0    0    0    0 -0.00000000000E+00 -0.00000000000E+00 -0.10000000000E+04  0.10000000000E+04  0.00000000000E+00 0.  1.
    9000005    2    1    2  501    0  0.13008941863E-04 -0.34580260575E-05 -0.89451651966E+03  0.11054834789E+04  0.64956440645E+03 0.  0.
         13    1    3    3    0    0 -0.20780768905E+03 -0.10622321755E+03 -0.62858116249E+02  0.24169929738E+03  0.00000000000E+00 0.  1.
          1    1    3    3  501    0  0.20780770206E+03  0.10622321409E+03 -0.83165840341E+03  0.86378418150E+03  0.00000000000E+00 0.  1.
         21    1    1    2  502  501 -0.13008941862E-04  0.34580260570E-05  0.61430484678E-04  0.62887955607E-04  0.00000000000E+00 0. -1.
<mgrwt>
<rscale>  1 0.64956441E+03</rscale>
<asrwt>0</asrwt>
<pdfrwt beam="1">  1        1 0.38357732E+00 0.64956441E+03</pdfrwt>
<pdfrwt beam="2">0</pdfrwt>
<totfact> 0.15824780E+00</totfact>
</mgrwt>
</event>
<event>
 6    1  0.2922874E-003  0.6470192E+03  0.7818608E-02  0.9812389E-01
          1   -1    0    0  502    0  0.00000000000E+00  0.00000000000E+00  0.10465886958E+03  0.10465886958E+03  0.00000000000E+00 0.  1.
         13   -1    0    0    0    0 -0.00000000000E+00 -0.00000000000E+00 -0.10000000000E+04  0.10000000000E+04  0.00000000000E+00 0.  1.
    9000005    2    1    2  501    0 -0.54166182332E-03 -0.11778347476E-02 -0.89533902611E+03  0.11046563980E+04  0.64701915422E+03 0.  0.
         13    1    3    3    0    0 -0.28020955698E+03  0.52171066842E+02 -0.70894432472E+03  0.76409506712E+03  0.00000000000E+00 0.  1.
          3    1    3    3  501    0  0.28020901531E+03 -0.52172244676E+02 -0.18639470139E+03  0.34056133087E+03  0.00000000000E+00 0.  1.
         21    1    1    2  502  501  0.54166182329E-03  0.11778347476E-02 -0.21043071346E-02  0.24715988226E-02  0.00000000000E+00 0.  1.
<mgrwt>
<rscale>  1 0.64701915E+03</rscale>
<asrwt>0</asrwt>
<pdfrwt beam="1">  1        1 0.38057851E+00 0.64701915E+03</pdfrwt>
<pdfrwt beam="2">0</pdfrwt>
<totfact> 0.16322486E+00</totfact>
</mgrwt>
</event>
<event>
 6    1  0.2922874E-003  0.6525898E+03  0.7818608E-02  0.9801932E-01
          1   -1    0    0  502    0  0.00000000000E+00  0.00000000000E+00  0.11700029872E+03  0.11700029872E+03  0.00000000000E+00 0.  1.
         13   -1    0    0    0    0 -0.00000000000E+00 -0.00000000000E+00 -0.10000000000E+04  0.10000000000E+04  0.00000000000E+00 0.  1.
    9000005    2    1    2  501    0  0.11655133478E+00 -0.24663815644E+01 -0.89337129070E+03  0.11063388500E+04  0.65258508356E+03 0.  0.
         13    1    3    3    0    0  0.24656019419E+03  0.15884036166E+02 -0.80792299875E+03  0.84485726834E+03  0.00000000000E+00 0.  1.
          1    1    3    3  501    0 -0.24644364285E+03 -0.18350417730E+02 -0.85448291955E+02  0.26148158163E+03  0.00000000000E+00 0.  1.
         21    1    1    2  502  501 -0.11655133478E+00  0.24663815644E+01  0.10371589421E+02  0.10661448745E+02  0.00000000000E+00 0. -1.
<mgrwt>
<rscale>  1 0.65258975E+03</rscale>
<asrwt>0</asrwt>
<pdfrwt beam="1">  1        1 0.42545653E+00 0.65258975E+03</pdfrwt>
<pdfrwt beam="2">0</pdfrwt>
<totfact> 0.10277333E+00</totfact>
</mgrwt>
</event>
<event>
 6    1  0.2922874E-003  0.6469494E+03  0.7818608E-02  0.9812520E-01
          1   -1    0    0  502    0  0.00000000000E+00  0.00000000000E+00  0.10481629239E+03  0.10481629239E+03  0.00000000000E+00 0.  1.
         13   -1    0    0    0    0 -0.00000000000E+00 -0.00000000000E+00 -0.10000000000E+04  0.10000000000E+04  0.00000000000E+00 0.  1.
    9000005    2    1    2  501    0  0.48655400343E+00  0.26973557058E+00 -0.89447558341E+03  0.11039157748E+04  0.64694911624E+03 0.  0.
         13    1    3    3    0    0 -0.29699171297E+03 -0.74508241210E+02 -0.27025167717E+03  0.40840118094E+03  0.00000000000E+00 0.  1.
          1    1    3    3  501    0  0.29747826697E+03  0.74777976781E+02 -0.62422390624E+03  0.69551459385E+03  0.00000000000E+00 0.  1.
         21    1    1    2  502  501 -0.48655400343E+00 -0.26973557058E+00 -0.70812420300E+00  0.90051760847E+00  0.00000000000E+00 0. -1.
<mgrwt>
<rscale>  1 0.64694936E+03</rscale>
<asrwt>0</asrwt>
<pdfrwt beam="1">  1        1 0.38115096E+00 0.64694936E+03</pdfrwt>
<pdfrwt beam="2">0</pdfrwt>
<totfact> 0.16228002E+00</totfact>
</mgrwt>
</event>
<event>
 6    1  0.2922874E-003  0.6448246E+03  0.7818608E-02  0.9816539E-01
          1   -1    0    0  502    0  0.00000000000E+00  0.00000000000E+00  0.10395487140E+03  0.10395487140E+03  0.00000000000E+00 0.  1.
         13   -1    0    0    0    0 -0.00000000000E+00 -0.00000000000E+00 -0.10000000000E+04  0.10000000000E+04  0.00000000000E+00 0.  1.
    9000005    2    1    2  501    0 -0.16926861415E-02 -0.15955924203E-01 -0.89602452251E+03  0.11039287550E+04  0.64482458923E+03 0.  0.
         13    1    3    3    0    0 -0.21559953146E+03  0.71149142318E+02 -0.83991473708E+03  0.87005868996E+03  0.00000000000E+00 0.  1.
          3    1    3    3  501    0  0.21559783877E+03 -0.71165098242E+02 -0.56109785432E+02  0.23387006502E+03  0.00000000000E+00 0.  1.
         21    1    1    2  502  501  0.16926861415E-02  0.15955924203E-01 -0.20606086913E-01  0.26116422447E-01  0.00000000000E+00 0. -1.
<mgrwt>
<rscale>  1 0.64482459E+03</rscale>
<asrwt>0</asrwt>
<pdfrwt beam="1">  1        1 0.37801851E+00 0.64482459E+03</pdfrwt>
<pdfrwt beam="2">0</pdfrwt>
<totfact> 0.16759185E+00</totfact>
</mgrwt>
</event>
<event>
 6    1  0.2922874E-003  0.6630388E+03  0.7818608E-02  0.9782616E-01
          1   -1    0    0  502    0  0.00000000000E+00  0.00000000000E+00  0.11833441378E+03  0.11833441378E+03  0.00000000000E+00 0.  1.
         13   -1    0    0    0    0 -0.00000000000E+00 -0.00000000000E+00 -0.10000000000E+04  0.10000000000E+04  0.00000000000E+00 0.  1.
    9000005    2    1    2  501    0  0.50666761860E+00  0.13397396186E-01 -0.89008641432E+03  0.11098983461E+04  0.66303865414E+03 0.  0.
         13    1    3    3    0    0  0.20532674717E+03  0.20801177194E+03 -0.70772301140E+03  0.76570218181E+03  0.00000000000E+00 0.  1.
          1    1    3    3  501    0 -0.20482007955E+03 -0.20799837455E+03 -0.18236340292E+03  0.34419616431E+03  0.00000000000E+00 0.  1.
         21    1    1    2  502  501 -0.50666761860E+00 -0.13397396186E-01  0.84208281024E+01  0.84360676560E+01  0.00000000000E+00 0.  1.
<mgrwt>
<rscale>  1 0.66303885E+03</rscale>
<asrwt>0</asrwt>
<pdfrwt beam="1">  1        1 0.43030787E+00 0.66303885E+03</pdfrwt>
<pdfrwt beam="2">0</pdfrwt>
<totfact> 0.97495048E-01</totfact>
</mgrwt>
</event>
<event>
 6    1  0.2922874E-003  0.6440077E+03  0.7818608E-02  0.9818089E-01
          1   -1    0    0  502    0  0.00000000000E+00  0.00000000000E+00  0.10368693674E+03  0.10368693674E+03  0.00000000000E+00 0.  1.
         13   -1    0    0    0    0 -0.00000000000E+00 -0.00000000000E+00 -0.10000000000E+04  0.10000000000E+04  0.00000000000E+00 0.  1.
    9000005    2    1    2  501    0  0.10500004805E-04  0.81352559960E-05 -0.89631351342E+03  0.11036864864E+04  0.64400772190E+03 0.  0.
         13    1    3    3    0    0 -0.13054432075E+03 -0.24403891310E+03 -0.73022650765E+03  0.78091456847E+03  0.00000000000E+00 0.  1.
          1    1    3    3  501    0  0.13054433125E+03  0.24403892124E+03 -0.16608700578E+03  0.32277191791E+03  0.00000000000E+00 0.  1.
         21    1    1    2  502  501 -0.10500004793E-04 -0.81352559842E-05  0.45016081736E-03  0.45035674080E-03  0.00000000000E+00 0. -1.
<mgrwt>
<rscale>  1 0.64400772E+03</rscale>
<asrwt>0</asrwt>
<pdfrwt beam="1">  1        1 0.37704420E+00 0.64400772E+03</pdfrwt>
<pdfrwt beam="2">0</pdfrwt>
<totfact> 0.16928237E+00</totfact>
</mgrwt>
</event>
<event>
 6    1  0.2922874E-003  0.6367914E+03  0.7818608E-02  0.9831885E-01
          1   -1    0    0  502    0  0.00000000000E+00  0.00000000000E+00  0.10137584949E+03  0.10137584949E+03  0.00000000000E+00 0.  1.
         13   -1    0    0    0    0 -0.00000000000E+00 -0.00000000000E+00 -0.10000000000E+04  0.10000000000E+04  0.00000000000E+00 0.  1.
    9000005    2    1    2  501    0 -0.22334473925E-04 -0.36554533409E-04 -0.89862402284E+03  0.11013757148E+04  0.63679143428E+03 0.  0.
         13    1    3    3    0    0  0.23565017303E+03 -0.19006602954E+03 -0.27879587642E+03  0.41156195201E+03  0.00000000000E+00 0.  1.
          3    1    3    3  501    0 -0.23565019536E+03  0.19006599299E+03 -0.61982814642E+03  0.68981376281E+03  0.00000000000E+00 0.  1.
         21    1    1    2  502  501  0.22334473921E-04  0.36554533392E-04 -0.12767302363E-03  0.13466797540E-03  0.00000000000E+00 0. -1.
<mgrwt>
<rscale>  1 0.63679143E+03</rscale>
<asrwt>0</asrwt>
<pdfrwt beam="1">  1        1 0.36864023E+00 0.63679143E+03</pdfrwt>
<pdfrwt beam="2">0</pdfrwt>
<totfact> 0.18456125E+00</totfact>
</mgrwt>
</event>
<event>
 6    1  0.2922874E-003  0.6356252E+03  0.7818608E-02  0.9834133E-01
          1   -1    0    0  502    0  0.00000000000E+00  0.00000000000E+00  0.10100494695E+03  0.10100494695E+03  0.00000000000E+00 0.  1.
         13   -1    0    0    0    0 -0.00000000000E+00 -0.00000000000E+00 -0.10000000000E+04  0.10000000000E+04  0.00000000000E+00 0.  1.
    9000005    2    1    2  501    0  0.10683277151E-03  0.81845889611E-04 -0.89899510574E+03  0.11010048024E+04  0.63562518421E+03 0.  0.
         13    1    3    3    0    0 -0.16873789845E+03  0.26857065208E+03 -0.41476033209E+03  0.52213868523E+03  0.00000000000E+00 0.  1.
          1    1    3    3  501    0  0.16873800528E+03 -0.26857057024E+03 -0.48423477365E+03  0.57886611719E+03  0.00000000000E+00 0.  1.
         21    1    1    2  502  501 -0.10683277150E-03 -0.81845889646E-04  0.52686401027E-04  0.14452628679E-03  0.00000000000E+00 0. -1.
<mgrwt>
<rscale>  1 0.63562518E+03</rscale>
<asrwt>0</asrwt>
<pdfrwt beam="1">  1        1 0.36729149E+00 0.63562518E+03</pdfrwt>
<pdfrwt beam="2">0</pdfrwt>
<totfact> 0.18713317E+00</totfact>
</mgrwt>
</event>
<event>
 6    1  0.2922874E-003  0.6397759E+03  0.7818608E-02  0.9826155E-01
          1   -1    0    0  502    0  0.00000000000E+00  0.00000000000E+00  0.11474273576E+03  0.11474273576E+03  0.00000000000E+00 0.  1.
         13   -1    0    0    0    0 -0.00000000000E+00 -0.00000000000E+00 -0.10000000000E+04  0.10000000000E+04  0.00000000000E+00 0.  1.
    9000005    2    1    2  501    0  0.71117915102E+00 -0.15583277814E+00 -0.89765993435E+03  0.11023187153E+04  0.63977547798E+03 0.  0.
         13    1    3    3    0    0  0.20783387260E+03  0.14799635333E+03 -0.11609582446E+03  0.28031425161E+03  0.00000000000E+00 0.  1.
          3    1    3    3  501    0 -0.20712269345E+03 -0.14815218611E+03 -0.78156410989E+03  0.82200446365E+03  0.00000000000E+00 0.  1.
         21    1    1    2  502  501 -0.71117915102E+00  0.15583277814E+00  0.12402670109E+02  0.12424020503E+02  0.00000000000E+00 0.  1.
<mgrwt>
<rscale>  1 0.63977589E+03</rscale>
<asrwt>0</asrwt>
<pdfrwt beam="1">  1        1 0.41724719E+00 0.63977589E+03</pdfrwt>
<pdfrwt beam="2">0</pdfrwt>
<totfact> 0.11221219E+00</totfact>
</mgrwt>
</event>
<event>
 6    1  0.2922874E-003  0.6518838E+03  0.7818608E-02  0.9803251E-01
          1   -1    0    0  502    0  0.00000000000E+00  0.00000000000E+00  0.10624143479E+03  0.10624143479E+03  0.00000000000E+00 0.  1.
         13   -1    0    0    0    0 -0.00000000000E+00 -0.00000000000E+00 -0.10000000000E+04  0.10000000000E+04  0.00000000000E+00 0.  1.
    9000005    2    1    2  501    0  0.22414863290E-02  0.28549220136E-03 -0.89376145024E+03  0.11062377702E+04  0.65188378896E+03 0.  0.
         13    1    3    3    0    0  0.24901740930E+02  0.12446705965E+03 -0.95633319051E+03  0.96472033093E+03  0.00000000000E+00 0.  1.
          3    1    3    3  501    0 -0.24899499444E+02 -0.12446677416E+03  0.62571740270E+02  0.14151743928E+03  0.00000000000E+00 0.  1.
         21    1    1    2  502  501 -0.22414863290E-02 -0.28549220134E-03  0.28850241122E-02  0.36645778595E-02  0.00000000000E+00 0.  1.
<mgrwt>
<rscale>  1 0.65188379E+03</rscale>
<asrwt>0</asrwt>
<pdfrwt beam="1">  1        1 0.38633330E+00 0.65188379E+03</pdfrwt>
<pdfrwt beam="2">0</pdfrwt>
<totfact> 0.15380185E+00</totfact>
</mgrwt>
</event>
<event>
 6    1  0.2922874E-003  0.6539585E+03  0.7818608E-02  0.9799380E-01
          1   -1    0    0  502    0  0.00000000000E+00  0.00000000000E+00  0.10704309516E+03  0.10704309516E+03  0.00000000000E+00 0.  1.
         13   -1    0    0    0    0 -0.00000000000E+00 -0.00000000000E+00 -0.10000000000E+04  0.10000000000E+04  0.00000000000E+00 0.  1.
    9000005    2    1    2  501    0 -0.76197280463E-02  0.28827305102E-02 -0.89308443177E+03  0.11069153083E+04  0.65395848291E+03 0.  0.
         13    1    3    3    0    0 -0.13093862020E+03  0.10287077112E+03 -0.92286374180E+03  0.93776585763E+03  0.00000000000E+00 0.  1.
          3    1    3    3  501    0  0.13093100048E+03 -0.10286788839E+03  0.29779310031E+02  0.16914945065E+03  0.00000000000E+00 0.  1.
         21    1    1    2  502  501  0.76197280463E-02 -0.28827305102E-02  0.12752692350E+00  0.12778687964E+00  0.00000000000E+00 0. -1.
<mgrwt>
<rscale>  1 0.65395848E+03</rscale>
<asrwt>0</asrwt>
<pdfrwt beam="1">  1        1 0.38924844E+00 0.65395848E+03</pdfrwt>
<pdfrwt beam="2">0</pdfrwt>
<totfact> 0.14923884E+00</totfact>
</mgrwt>
</event>
<event>
 6    1  0.2922874E-003  0.6369519E+03  0.7818608E-02  0.9831576E-01
          1   -1    0    0  502    0  0.00000000000E+00  0.00000000000E+00  0.10142699354E+03  0.10142699354E+03  0.00000000000E+00 0.  1.
         13   -1    0    0    0    0 -0.00000000000E+00 -0.00000000000E+00 -0.10000000000E+04  0.10000000000E+04  0.00000000000E+00 0.  1.
    9000005    2    1    2  501    0 -0.11055479092E-04  0.49138036502E-05 -0.89857305469E+03  0.11014269438E+04  0.63695194320E+03 0.  0.
         13    1    3    3    0    0 -0.74508685813E+02  0.30250232536E+03 -0.56356849801E+03  0.64394770988E+03  0.00000000000E+00 0.  1.
          1    1    3    3  501    0  0.74508674758E+02 -0.30250232044E+03 -0.33500455668E+03  0.45747923394E+03  0.00000000000E+00 0.  1.
         21    1    1    2  502  501  0.11055479092E-04 -0.49138036518E-05  0.48229123328E-04  0.49723409188E-04  0.00000000000E+00 0. -1.
<mgrwt>
<rscale>  1 0.63695194E+03</rscale>
<asrwt>0</asrwt>
<pdfrwt beam="1">  1        1 0.36882621E+00 0.63695194E+03</pdfrwt>
<pdfrwt beam="2">0</pdfrwt>
<totfact> 0.18420928E+00</totfact>
</mgrwt>
</event>
<event>
 6    1  0.2922874E-003  0.6636824E+03  0.7818608E-02  0.9781439E-01
          1   -1    0    0  502    0  0.00000000000E+00  0.00000000000E+00  0.11203146814E+03  0.11203146814E+03  0.00000000000E+00 0.  1.
         13   -1    0    0    0    0 -0.00000000000E+00 -0.00000000000E+00 -0.10000000000E+04  0.10000000000E+04  0.00000000000E+00 0.  1.
    9000005    2    1    2  501    0 -0.10538840321E+01  0.51391279634E+00 -0.88967985625E+03  0.11099570022E+04  0.66368134315E+03 0.  0.
         13    1    3    3    0    0  0.13721537606E+03 -0.15026695985E+03 -0.88206669097E+03  0.90523470214E+03  0.00000000000E+00 0.  1.
          3    1    3    3  501    0 -0.13826926009E+03  0.15078087264E+03 -0.76131652870E+01  0.20472230002E+03  0.00000000000E+00 0.  1.
         21    1    1    2  502  501  0.10538840321E+01 -0.51391279634E+00  0.17113243956E+01  0.20744659800E+01  0.00000000000E+00 0.  1.
<mgrwt>
<rscale>  1 0.66368238E+03</rscale>
<asrwt>0</asrwt>
<pdfrwt beam="1">  1        1 0.40738802E+00 0.66368238E+03</pdfrwt>
<pdfrwt beam="2">0</pdfrwt>
<totfact> 0.12367454E+00</totfact>
</mgrwt>
</event>
<event>
 6    1  0.2922874E-003  0.6380293E+03  0.7818608E-02  0.9829504E-01
          1   -1    0    0  502    0  0.00000000000E+00  0.00000000000E+00  0.10219132314E+03  0.10219132314E+03  0.00000000000E+00 0.  1.
         13   -1    0    0    0    0 -0.00000000000E+00 -0.00000000000E+00 -0.10000000000E+04  0.10000000000E+04  0.00000000000E+00 0.  1.
    9000005    2    1    2  501    0 -0.33152650345E-01  0.82831100048E-01 -0.89822443784E+03  0.11017660970E+04  0.63802929694E+03 0.  0.
         13    1    3    3    0    0 -0.43338650366E+02  0.19114935714E+03 -0.88385576567E+03  0.90532719492E+03  0.00000000000E+00 0.  1.
          1    1    3    3  501    0  0.43305497716E+02 -0.19106652604E+03 -0.14368672176E+02  0.19643890206E+03  0.00000000000E+00 0.  1.
         21    1    1    2  502  501  0.33152650345E-01 -0.82831100048E-01  0.41576098652E+00  0.42522616015E+00  0.00000000000E+00 0.  1.
<mgrwt>
<rscale>  1 0.63802930E+03</rscale>
<asrwt>0</asrwt>
<pdfrwt beam="1">  1        1 0.37160560E+00 0.63802930E+03</pdfrwt>
<pdfrwt beam="2">0</pdfrwt>
<totfact> 0.17906828E+00</totfact>
</mgrwt>
</event>
<event>
 6    1  0.2922874E-003  0.6628486E+03  0.7818608E-02  0.9782964E-01
          1   -1    0    0  502    0  0.00000000000E+00  0.00000000000E+00  0.10984212175E+03  0.10984212175E+03  0.00000000000E+00 0.  1.
         13   -1    0    0    0    0 -0.00000000000E+00 -0.00000000000E+00 -0.10000000000E+04  0.10000000000E+04  0.00000000000E+00 0.  1.
    9000005    2    1    2  501    0  0.42217991563E-04 -0.31826250307E-04 -0.89015789946E+03  0.11098420648E+04  0.66284864244E+03 0.  0.
         13    1    3    3    0    0 -0.29808169732E+03  0.14385924035E+03 -0.47378242091E+03  0.57794287060E+03  0.00000000000E+00 0.  1.
          3    1    3    3  501    0  0.29808173954E+03 -0.14385927218E+03 -0.41637547855E+03  0.53189919419E+03  0.00000000000E+00 0.  1.
         21    1    1    2  502  501 -0.42217991525E-04  0.31826250323E-04  0.21213931108E-04  0.56967533658E-04  0.00000000000E+00 0. -1.
<mgrwt>
<rscale>  1 0.66284864E+03</rscale>
<asrwt>0</asrwt>
<pdfrwt beam="1">  1        1 0.39942674E+00 0.66284864E+03</pdfrwt>
<pdfrwt beam="2">0</pdfrwt>
<totfact> 0.13425112E+00</totfact>
</mgrwt>
</event>
<event>
 6    1  0.2922874E-003  0.6516831E+03  0.7818608E-02  0.9803626E-01
          1   -1    0    0  502    0  0.00000000000E+00  0.00000000000E+00  0.10617305223E+03  0.10617305223E+03  0.00000000000E+00 0.  1.
         13   -1    0    0    0    0 -0.00000000000E+00 -0.00000000000E+00 -0.10000000000E+04  0.10000000000E+04  0.00000000000E+00 0.  1.
    9000005    2    1    2  501    0 -0.78061474369E-05 -0.11781551507E-04 -0.89382727944E+03  0.11061727203E+04  0.65168311439E+03 0.  0.
         13    1    3    3    0    0 -0.14830947742E+03  0.27107217190E+03 -0.62246949914E+03  0.69494179673E+03  0.00000000000E+00 0.  1.
          3    1    3    3  501    0  0.14830946962E+03 -0.27107218368E+03 -0.27135778030E+03  0.41123092354E+03  0.00000000000E+00 0.  1.
         21    1    1    2  502  501  0.78061474408E-05  0.11781551486E-04  0.33166701170E-03  0.33196799175E-03  0.00000000000E+00 0.  1.
<mgrwt>
<rscale>  1 0.65168311E+03</rscale>
<asrwt>0</asrwt>
<pdfrwt beam="1">  1        1 0.38608464E+00 0.65168311E+03</pdfrwt>
<pdfrwt beam="2">0</pdfrwt>
<totfact> 0.15419783E+00</totfact>
</mgrwt>
</event>
<event>
 6    1  0.2922874E-003  0.6048894E+03  0.7818608E-02  0.9895314E-01
          1   -1    0    0  502    0  0.00000000000E+00  0.00000000000E+00  0.91473427188E+02  0.91473427188E+02  0.00000000000E+00 0.  1.
         13   -1    0    0    0    0 -0.00000000000E+00 -0.00000000000E+00 -0.10000000000E+04  0.10000000000E+04  0.00000000000E+00 0.  1.
    9000005    2    1    2  501    0 -0.22204465040E-05 -0.12258283533E-04 -0.90852719689E+03  0.10914728030E+04  0.60488942143E+03 0.  0.
         13    1    3    3    0    0 -0.27478633094E+03  0.96475793511E+02 -0.30703271581E+03  0.42318340584E+03  0.00000000000E+00 0.  1.
          3    1    3    3  501    0  0.27478632872E+03 -0.96475805770E+02 -0.60149448109E+03  0.66828939714E+03  0.00000000000E+00 0.  1.
         21    1    1    2  502  501  0.22204465011E-05  0.12258283537E-04  0.62407917597E-03  0.62420350350E-03  0.00000000000E+00 0.  1.
<mgrwt>
<rscale>  1 0.60488942E+03</rscale>
<asrwt>0</asrwt>
<pdfrwt beam="1">  1        1 0.33263135E+00 0.60488942E+03</pdfrwt>
<pdfrwt beam="2">0</pdfrwt>
<totfact> 0.26644073E+00</totfact>
</mgrwt>
</event>
<event>
 6    1  0.2922874E-003  0.6142448E+03  0.7818608E-02  0.9876286E-01
          1   -1    0    0  502    0  0.00000000000E+00  0.00000000000E+00  0.94339787800E+02  0.94339787800E+02  0.00000000000E+00 0.  1.
         13   -1    0    0    0    0 -0.00000000000E+00 -0.00000000000E+00 -0.10000000000E+04  0.10000000000E+04  0.00000000000E+00 0.  1.
    9000005    2    1    2  501    0  0.65328970440E-03 -0.19971630283E-03 -0.90567582133E+03  0.10943241637E+04  0.61424480623E+03 0.  0.
         13    1    3    3    0    0 -0.81311866177E+02 -0.94429892331E+02 -0.95293596596E+03  0.96104920757E+03  0.00000000000E+00 0.  1.
          3    1    3    3  501    0  0.81312519466E+02  0.94429692614E+02  0.47260144633E+02  0.13327495616E+03  0.00000000000E+00 0.  1.
         21    1    1    2  502  501 -0.65328970440E-03  0.19971630283E-03  0.15609128580E-01  0.15624070182E-01  0.00000000000E+00 0. -1.
<mgrwt>
<rscale>  1 0.61424481E+03</rscale>
<asrwt>0</asrwt>
<pdfrwt beam="1">  1        1 0.34305450E+00 0.61424481E+03</pdfrwt>
<pdfrwt beam="2">0</pdfrwt>
<totfact> 0.23968263E+00</totfact>
</mgrwt>
</event>
<event>
 6    1  0.2922874E-003  0.6322473E+03  0.7818608E-02  0.9840673E-01
          1   -1    0    0  502    0  0.00000000000E+00  0.00000000000E+00  0.99934157967E+02  0.99934157967E+02  0.00000000000E+00 0.  1.
         13   -1    0    0    0    0 -0.00000000000E+00 -0.00000000000E+00 -0.10000000000E+04  0.10000000000E+04  0.00000000000E+00 0.  1.
    9000005    2    1    2  501    0  0.25027959936E-05  0.11244646345E-04 -0.90006584115E+03  0.10999341464E+04  0.63224726812E+03 0.  0.
         13    1    3    3    0    0  0.68106689608E+02  0.21824240128E+03 -0.82985794352E+03  0.86077434518E+03  0.00000000000E+00 0.  1.
          3    1    3    3  501    0 -0.68106687105E+02 -0.21824239004E+03 -0.70207897624E+02  0.23915980124E+03  0.00000000000E+00 0.  1.
         21    1    1    2  502  501 -0.25027959832E-05 -0.11244646333E-04 -0.88696871706E-06  0.11553907235E-04  0.00000000000E+00 0. -1.
<mgrwt>
<rscale>  1 0.63224727E+03</rscale>
<asrwt>0</asrwt>
<pdfrwt beam="1">  1        1 0.36339770E+00 0.63224727E+03</pdfrwt>
<pdfrwt beam="2">0</pdfrwt>
<totfact> 0.19475266E+00</totfact>
</mgrwt>
</event>
<event>
 6    1  0.2922874E-003  0.5174368E+03  0.7818608E-02  0.1009325E+00
          3   -1    0    0  502    0  0.00000000000E+00  0.00000000000E+00  0.66960111086E+02  0.66960111086E+02  0.00000000000E+00 0.  1.
         13   -1    0    0    0    0 -0.00000000000E+00 -0.00000000000E+00 -0.10000000000E+04  0.10000000000E+04  0.00000000000E+00 0.  1.
    9000005    2    1    2  501    0  0.54314857294E-04  0.22080926022E-02 -0.93306474362E+03  0.10669351584E+04  0.51743677537E+03 0.  0.
         13    1    3    3    0    0  0.19735359445E+03  0.16556588115E+03 -0.41708620105E+03  0.49022586769E+03  0.00000000000E+00 0.  1.
          1    1    3    3  501    0 -0.19735354013E+03 -0.16556367306E+03 -0.51597854256E+03  0.57670929074E+03  0.00000000000E+00 0.  1.
         21    1    1    2  502  501 -0.54314857309E-04 -0.22080926022E-02  0.24854705139E-01  0.24952654981E-01  0.00000000000E+00 0. -1.
<mgrwt>
<rscale>  1 0.51743678E+03</rscale>
<asrwt>0</asrwt>
<pdfrwt beam="1">  1        3 0.24349183E+00 0.51743678E+03</pdfrwt>
<pdfrwt beam="2">0</pdfrwt>
<totfact> 0.42238760E-01</totfact>
</mgrwt>
</event>
<event>
 6    1  0.2922874E-003  0.6397331E+03  0.7818608E-02  0.9826237E-01
          1   -1    0    0  502    0  0.00000000000E+00  0.00000000000E+00  0.10231579422E+03  0.10231579422E+03  0.00000000000E+00 0.  1.
         13   -1    0    0    0    0 -0.00000000000E+00 -0.00000000000E+00 -0.10000000000E+04  0.10000000000E+04  0.00000000000E+00 0.  1.
    9000005    2    1    2  501    0 -0.12740799133E-03  0.15359862201E-03 -0.89768538437E+03  0.11023145989E+04  0.63973308931E+03 0.  0.
         13    1    3    3    0    0  0.14447642164E+02 -0.13889823780E+03  0.47014234862E+02  0.14734922161E+03  0.00000000000E+00 0.  1.
          1    1    3    3  501    0 -0.14447769572E+02  0.13889839140E+03 -0.94469961923E+03  0.95496537725E+03  0.00000000000E+00 0.  1.
         21    1    1    2  502  501  0.12740799133E-03 -0.15359862203E-03  0.11785889728E-02  0.11953649233E-02  0.00000000000E+00 0. -1.
<mgrwt>
<rscale>  1 0.63973309E+03</rscale>
<asrwt>0</asrwt>
<pdfrwt beam="1">  1        1 0.37205822E+00 0.63973309E+03</pdfrwt>
<pdfrwt beam="2">0</pdfrwt>
<totfact> 0.17819443E+00</totfact>
</mgrwt>
</event>
<event>
 6    1  0.2922874E-003  0.6746619E+03  0.7818608E-02  0.9761573E-01
          1   -1    0    0  502    0  0.00000000000E+00  0.00000000000E+00  0.12331985682E+03  0.12331985682E+03  0.00000000000E+00 0.  1.
         13   -1    0    0    0    0 -0.00000000000E+00 -0.00000000000E+00 -0.10000000000E+04  0.10000000000E+04  0.00000000000E+00 0.  1.
    9000005    2    1    2  501    0  0.58265294880E+00  0.16143883756E+01 -0.88612166053E+03  0.11137236084E+04  0.67465971634E+03 0.  0.
         13    1    3    3    0    0  0.16303991515E+03  0.36456377747E+02 -0.92755780649E+03  0.94248319125E+03  0.00000000000E+00 0.  1.
          3    1    3    3  501    0 -0.16245726220E+03 -0.34841989371E+02  0.41436145952E+02  0.17124041713E+03  0.00000000000E+00 0.  1.
         21    1    1    2  502  501 -0.58265294880E+00 -0.16143883756E+01  0.94415173495E+01  0.95962484412E+01  0.00000000000E+00 0. -1.
<mgrwt>
<rscale>  1 0.67466190E+03</rscale>
<asrwt>0</asrwt>
<pdfrwt beam="1">  1        1 0.44843679E+00 0.67466190E+03</pdfrwt>
<pdfrwt beam="2">0</pdfrwt>
<totfact> 0.80368038E-01</totfact>
</mgrwt>
</event>
<event>
 6    1  0.2922874E-003  0.6461238E+03  0.7818608E-02  0.9814080E-01
          1   -1    0    0  502    0  0.00000000000E+00  0.00000000000E+00  0.10437095242E+03  0.10437095242E+03  0.00000000000E+00 0.  1.
         13   -1    0    0    0    0 -0.00000000000E+00 -0.00000000000E+00 -0.10000000000E+04  0.10000000000E+04  0.00000000000E+00 0.  1.
    9000005    2    1    2  501    0  0.24329231452E-02 -0.74193824292E-03 -0.89563003483E+03  0.11043682240E+04  0.64612383867E+03 0.  0.
         13    1    3    3    0    0 -0.84944465824E+00  0.13311901497E+03  0.55310524769E+02  0.14415494391E+03  0.00000000000E+00 0.  1.
          1    1    3    3  501    0  0.85187758139E+00 -0.13311975691E+03 -0.95094055960E+03  0.96021328009E+03  0.00000000000E+00 0.  1.
         21    1    1    2  502  501 -0.24329231452E-02  0.74193824292E-03  0.98725202594E-03  0.27284160147E-02  0.00000000000E+00 0. -1.
<mgrwt>
<rscale>  1 0.64612384E+03</rscale>
<asrwt>0</asrwt>
<pdfrwt beam="1">  1        1 0.37953154E+00 0.64612384E+03</pdfrwt>
<pdfrwt beam="2">0</pdfrwt>
<totfact> 0.16499752E+00</totfact>
</mgrwt>
</event>
<event>
 6    1  0.2922874E-003  0.6311447E+03  0.7818608E-02  0.9842818E-01
          1   -1    0    0  502    0  0.00000000000E+00  0.00000000000E+00  0.99596535522E+02  0.99596535522E+02  0.00000000000E+00 0.  1.
         13   -1    0    0    0    0 -0.00000000000E+00 -0.00000000000E+00 -0.10000000000E+04  0.10000000000E+04  0.00000000000E+00 0.  1.
    9000005    2    1    2  501    0  0.95908698754E-03  0.65210326319E-03 -0.90041405104E+03  0.10995858856E+04  0.63114471916E+03 0.  0.
         13    1    3    3    0    0  0.15645404737E+03 -0.38671355328E+01  0.27212653074E+02  0.15885009337E+03  0.00000000000E+00 0.  1.
          3    1    3    3  501    0 -0.15645308829E+03  0.38677876361E+01 -0.92762670412E+03  0.94073579224E+03  0.00000000000E+00 0.  1.
         21    1    1    2  502  501 -0.95908698755E-03 -0.65210326319E-03  0.10586566509E-01  0.10649905021E-01  0.00000000000E+00 0. -1.
<mgrwt>
<rscale>  1 0.63114472E+03</rscale>
<asrwt>0</asrwt>
<pdfrwt beam="1">  1        1 0.36216998E+00 0.63114472E+03</pdfrwt>
<pdfrwt beam="2">0</pdfrwt>
<totfact> 0.19721749E+00</totfact>
</mgrwt>
</event>
<event>
 6    1  0.2922874E-003  0.6343701E+03  0.7818608E-02  0.9836558E-01
          1   -1    0    0  502    0  0.00000000000E+00  0.00000000000E+00  0.10060968944E+03  0.10060968944E+03  0.00000000000E+00 0.  1.
         13   -1    0    0    0    0 -0.00000000000E+00 -0.00000000000E+00 -0.10000000000E+04  0.10000000000E+04  0.00000000000E+00 0.  1.
    9000005    2    1    2  501    0 -0.22699155530E-02  0.64403015489E-02 -0.89938931155E+03  0.11006027881E+04  0.63437005247E+03 0.  0.
         13    1    3    3    0    0 -0.28609489343E+03 -0.12195029045E+03 -0.55782031214E+03  0.63865926911E+03  0.00000000000E+00 0.  1.
          1    1    3    3  501    0  0.28609262352E+03  0.12195673075E+03 -0.34156899941E+03  0.46194351902E+03  0.00000000000E+00 0.  1.
         21    1    1    2  502  501  0.22699155529E-02 -0.64403015489E-02 -0.99901560443E-03  0.69013066036E-02  0.00000000000E+00 0.  1.
<mgrwt>
<rscale>  1 0.63437005E+03</rscale>
<asrwt>0</asrwt>
<pdfrwt beam="1">  1        1 0.36585419E+00 0.63437005E+03</pdfrwt>
<pdfrwt beam="2">0</pdfrwt>
<totfact> 0.18991215E+00</totfact>
</mgrwt>
</event>
<event>
 6    1  0.2922874E-003  0.6537835E+03  0.7818608E-02  0.9799705E-01
          3   -1    0    0  502    0  0.00000000000E+00  0.00000000000E+00  0.10685825205E+03  0.10685825205E+03  0.00000000000E+00 0.  1.
         13   -1    0    0    0    0 -0.00000000000E+00 -0.00000000000E+00 -0.10000000000E+04  0.10000000000E+04  0.00000000000E+00 0.  1.
    9000005    2    1    2  501    0  0.14241464417E-04  0.81604752253E-05 -0.89314177203E+03  0.11068582229E+04  0.65378352737E+03 0.  0.
         13    1    3    3    0    0 -0.25842295591E+02  0.53324798583E+02  0.97689442024E+02  0.11425666487E+03  0.00000000000E+00 0.  1.
          3    1    3    3  501    0  0.25842309833E+02 -0.53324790422E+02 -0.99083121406E+03  0.99260155803E+03  0.00000000000E+00 0.  1.
         21    1    1    2  502  501 -0.14241464417E-04 -0.81604752289E-05  0.24083160326E-04  0.29144661192E-04  0.00000000000E+00 0.  1.
<mgrwt>
<rscale>  1 0.65378353E+03</rscale>
<asrwt>0</asrwt>
<pdfrwt beam="1">  1        3 0.38857628E+00 0.65378353E+03</pdfrwt>
<pdfrwt beam="2">0</pdfrwt>
<totfact> 0.67971241E-02</totfact>
</mgrwt>
</event>
<event>
 6    1  0.2922874E-003  0.6425974E+03  0.7818608E-02  0.9820770E-01
          1   -1    0    0  502    0  0.00000000000E+00  0.00000000000E+00  0.10323668121E+03  0.10323668121E+03  0.00000000000E+00 0.  1.
         13   -1    0    0    0    0 -0.00000000000E+00 -0.00000000000E+00 -0.10000000000E+04  0.10000000000E+04  0.00000000000E+00 0.  1.
    9000005    2    1    2  501    0 -0.23634470139E-04  0.20063079879E-03 -0.89676715656E+03  0.11032328381E+04  0.64259735607E+03 0.  0.
         13    1    3    3    0    0 -0.12002412739E+03  0.14224954208E+03  0.12568816319E+01  0.18612442915E+03  0.00000000000E+00 0.  1.
          3    1    3    3  501    0  0.12002410375E+03 -0.14224934145E+03 -0.89802403820E+03  0.91710840897E+03  0.00000000000E+00 0.  1.
         21    1    1    2  502  501  0.23634470130E-04 -0.20063079879E-03  0.38377730590E-02  0.38430864364E-02  0.00000000000E+00 0. -1.
<mgrwt>
<rscale>  1 0.64259736E+03</rscale>
<asrwt>0</asrwt>
<pdfrwt beam="1">  1        1 0.37540691E+00 0.64259736E+03</pdfrwt>
<pdfrwt beam="2">0</pdfrwt>
<totfact> 0.17216110E+00</totfact>
</mgrwt>
</event>
<event>
 6    1  0.2922874E-003  0.5998426E+03  0.7818608E-02  0.9905733E-01
          1   -1    0    0  502    0  0.00000000000E+00  0.00000000000E+00  0.91460721361E+02  0.91460721361E+02  0.00000000000E+00 0.  1.
         13   -1    0    0    0    0 -0.00000000000E+00 -0.00000000000E+00 -0.10000000000E+04  0.10000000000E+04  0.00000000000E+00 0.  1.
    9000005    2    1    2  501    0  0.32754737668E+00 -0.47332994768E-02 -0.91002779651E+03  0.10899365839E+04  0.59984252857E+03 0.  0.
         13    1    3    3    0    0  0.23800049119E+03  0.14669708155E+03 -0.65313911143E+03  0.71046109423E+03  0.00000000000E+00 0.  1.
          1    1    3    3  501    0 -0.23767294381E+03 -0.14670181485E+03 -0.25688868509E+03  0.37947548962E+03  0.00000000000E+00 0.  1.
         21    1    1    2  502  501 -0.32754737668E+00  0.47332994767E-02  0.14885178740E+01  0.15241375099E+01  0.00000000000E+00 0. -1.
<mgrwt>
<rscale>  1 0.59984262E+03</rscale>
<asrwt>0</asrwt>
<pdfrwt beam="1">  1        1 0.33258514E+00 0.59984262E+03</pdfrwt>
<pdfrwt beam="2">0</pdfrwt>
<totfact> 0.26680107E+00</totfact>
</mgrwt>
</event>
<event>
 6    1  0.2922874E-003  0.6681652E+03  0.7818608E-02  0.9773278E-01
          1   -1    0    0  502    0  0.00000000000E+00  0.00000000000E+00  0.11161192477E+03  0.11161192477E+03  0.00000000000E+00 0.  1.
         13   -1    0    0    0    0 -0.00000000000E+00 -0.00000000000E+00 -0.10000000000E+04  0.10000000000E+04  0.00000000000E+00 0.  1.
    9000005    2    1    2  501    0 -0.66213962384E-05  0.14321975186E-04 -0.88838881720E+03  0.11116111826E+04  0.66816519724E+03 0.  0.
         13    1    3    3    0    0  0.16476888351E+03  0.28902692129E+03 -0.39357269198E+03  0.51534921178E+03  0.00000000000E+00 0.  1.
          3    1    3    3  501    0 -0.16476889014E+03 -0.28902690696E+03 -0.49481612522E+03  0.59626197085E+03  0.00000000000E+00 0.  1.
         21    1    1    2  502  501  0.66213962473E-05 -0.14321975199E-04  0.74197346825E-03  0.74214121934E-03  0.00000000000E+00 0. -1.
<mgrwt>
<rscale>  1 0.66816520E+03</rscale>
<asrwt>0</asrwt>
<pdfrwt beam="1">  1        1 0.40586240E+00 0.66816520E+03</pdfrwt>
<pdfrwt beam="2">0</pdfrwt>
<totfact> 0.12552841E+00</totfact>
</mgrwt>
</event>
<event>
 6    1  0.2922874E-003  0.6462661E+03  0.7818608E-02  0.9813811E-01
          1   -1    0    0  502    0  0.00000000000E+00  0.00000000000E+00  0.10441574128E+03  0.10441574128E+03  0.00000000000E+00 0.  1.
         13   -1    0    0    0    0 -0.00000000000E+00 -0.00000000000E+00 -0.10000000000E+04  0.10000000000E+04  0.00000000000E+00 0.  1.
    9000005    2    1    2  501    0  0.74581677666E-04  0.15309829749E-04 -0.89558502989E+03  0.11044149664E+04  0.64626610013E+03 0.  0.
         13    1    3    3    0    0  0.31615672267E+03  0.65678123401E+02 -0.42712220063E+03  0.53544566806E+03  0.00000000000E+00 0.  1.
          1    1    3    3  501    0 -0.31615664809E+03 -0.65678108091E+02 -0.46846282926E+03  0.56896929830E+03  0.00000000000E+00 0.  1.
         21    1    1    2  502  501 -0.74581677674E-04 -0.15309829759E-04  0.77116503599E-03  0.77491440189E-03  0.00000000000E+00 0. -1.
<mgrwt>
<rscale>  1 0.64626610E+03</rscale>
<asrwt>0</asrwt>
<pdfrwt beam="1">  1        1 0.37969441E+00 0.64626610E+03</pdfrwt>
<pdfrwt beam="2">0</pdfrwt>
<totfact> 0.16472047E+00</totfact>
</mgrwt>
</event>
<event>
 6    1  0.2922874E-003  0.5152813E+03  0.7818608E-02  0.1009865E+00
          1   -1    0    0  502    0  0.00000000000E+00  0.00000000000E+00  0.66378727266E+02  0.66378727266E+02  0.00000000000E+00 0.  1.
         13   -1    0    0    0    0 -0.00000000000E+00 -0.00000000000E+00 -0.10000000000E+04  0.10000000000E+04  0.00000000000E+00 0.  1.
    9000005    2    1    2  501    0 -0.58402767706E-05  0.90808727293E-06 -0.93362128682E+03  0.10663787120E+04  0.51528133110E+03 0.  0.
         13    1    3    3    0    0  0.38308679489E+02 -0.85669004611E+02 -0.96337167748E+03  0.96793167230E+03  0.00000000000E+00 0.  1.
          1    1    3    3  501    0 -0.38308685329E+02  0.85669005519E+02  0.29750390660E+02  0.98447039685E+02  0.00000000000E+00 0.  1.
         21    1    1    2  502  501  0.58402767721E-05 -0.90808727841E-06  0.14087402134E-04  0.15277053190E-04  0.00000000000E+00 0. -1.
<mgrwt>
<rscale>  1 0.51528133E+03</rscale>
<asrwt>0</asrwt>
<pdfrwt beam="1">  1        1 0.24137770E+00 0.51528133E+03</pdfrwt>
<pdfrwt beam="2">0</pdfrwt>
<totfact> 0.67170378E+00</totfact>
</mgrwt>
</event>
<event>
 6    1  0.2922874E-003  0.6484473E+03  0.7818608E-02  0.9809697E-01
          1   -1    0    0  502    0  0.00000000000E+00  0.00000000000E+00  0.10516322255E+03  0.10516322255E+03  0.00000000000E+00 0.  1.
         13   -1    0    0    0    0 -0.00000000000E+00 -0.00000000000E+00 -0.10000000000E+04  0.10000000000E+04  0.00000000000E+00 0.  1.
    9000005    2    1    2  501    0 -0.68480141077E-03  0.34823030944E-03 -0.89487903194E+03  0.11051209611E+04  0.64844726600E+03 0.  0.
         13    1    3    3    0    0  0.77980291416E+02 -0.29288405894E+03 -0.25119922719E+03  0.39365346381E+03  0.00000000000E+00 0.  1.
          1    1    3    3  501    0 -0.77980976218E+02  0.29288440717E+03 -0.64367980475E+03  0.71146749726E+03  0.00000000000E+00 0.  1.
         21    1    1    2  502  501  0.68480141077E-03 -0.34823030941E-03  0.42254495476E-01  0.42261478976E-01  0.00000000000E+00 0. -1.
<mgrwt>
<rscale>  1 0.64844727E+03</rscale>
<asrwt>0</asrwt>
<pdfrwt beam="1">  1        1 0.38241252E+00 0.64844727E+03</pdfrwt>
<pdfrwt beam="2">0</pdfrwt>
<totfact> 0.16016739E+00</totfact>
</mgrwt>
</event>
<event>
 6    1  0.2922874E-003  0.6440891E+03  0.7818608E-02  0.9817934E-01
          1   -1    0    0  502    0  0.00000000000E+00  0.00000000000E+00  0.12698771852E+03  0.12698771852E+03  0.00000000000E+00 0.  1.
         13   -1    0    0    0    0 -0.00000000000E+00 -0.00000000000E+00 -0.10000000000E+04  0.10000000000E+04  0.00000000000E+00 0.  1.
    9000005    2    1    2  501    0  0.25812373493E+00 -0.80113113206E+01 -0.89552324253E+03  0.11030922984E+04  0.64403920150E+03 0.  0.
         13    1    3    3    0    0  0.19854664424E+03 -0.25145526678E+03 -0.35670746491E+03  0.47946922388E+03  0.00000000000E+00 0.  1.
          3    1    3    3  501    0 -0.19828852050E+03  0.24344395546E+03 -0.53881577762E+03  0.62362307448E+03  0.00000000000E+00 0.  1.
         21    1    1    2  502  501 -0.25812373493E+00  0.80113113206E+01  0.22510961051E+02  0.23895420155E+02  0.00000000000E+00 0. -1.
<mgrwt>
<rscale>  1 0.64408908E+03</rscale>
<asrwt>0</asrwt>
<pdfrwt beam="1">  1        1 0.46177450E+00 0.64408908E+03</pdfrwt>
<pdfrwt beam="2">0</pdfrwt>
<totfact> 0.70171650E-01</totfact>
</mgrwt>
</event>
<event>
 6    1  0.2922874E-003  0.6428164E+03  0.7818608E-02  0.9820353E-01
          1   -1    0    0  502    0  0.00000000000E+00  0.00000000000E+00  0.10330328701E+03  0.10330328701E+03  0.00000000000E+00 0.  1.
         13   -1    0    0    0    0 -0.00000000000E+00 -0.00000000000E+00 -0.10000000000E+04  0.10000000000E+04  0.00000000000E+00 0.  1.
    9000005    2    1    2  501    0  0.74900903826E-05  0.12794646324E-04 -0.89669676816E+03  0.11033032299E+04  0.64281639918E+03 0.  0.
         13    1    3    3    0    0  0.12506080786E+03 -0.18297558085E+03 -0.48827661412E+02  0.22694582915E+03  0.00000000000E+00 0.  1.
          1    1    3    3  501    0 -0.12506080037E+03  0.18297559364E+03 -0.84786910674E+03  0.87635740074E+03  0.00000000000E+00 0.  1.
         21    1    1    2  502  501 -0.74900903867E-05 -0.12794646317E-04  0.55162626061E-04  0.57120221833E-04  0.00000000000E+00 0. -1.
<mgrwt>
<rscale>  1 0.64281640E+03</rscale>
<asrwt>0</asrwt>
<pdfrwt beam="1">  1        1 0.37564911E+00 0.64281640E+03</pdfrwt>
<pdfrwt beam="2">0</pdfrwt>
<totfact> 0.17173200E+00</totfact>
</mgrwt>
</event>
<event>
 6    1  0.2922874E-003  0.6550916E+03  0.7818608E-02  0.9797272E-01
          1   -1    0    0  502    0  0.00000000000E+00  0.00000000000E+00  0.10797592664E+03  0.10797592664E+03  0.00000000000E+00 0.  1.
         13   -1    0    0    0    0 -0.00000000000E+00 -0.00000000000E+00 -0.10000000000E+04  0.10000000000E+04  0.00000000000E+00 0.  1.
    9000005    2    1    2  501    0 -0.20825175599E-01 -0.20489684255E-01 -0.89271341552E+03  0.11072859657E+04  0.65509157123E+03 0.  0.
         13    1    3    3    0    0  0.73213811429E+02  0.31725629779E+03 -0.50649096519E+03  0.60211703056E+03  0.00000000000E+00 0.  1.
          3    1    3    3  501    0 -0.73234636605E+02 -0.31727678748E+03 -0.38622245033E+03  0.50516893512E+03  0.00000000000E+00 0.  1.
         21    1    1    2  502  501  0.20825175599E-01  0.20489684255E-01  0.68934215613E+00  0.68996095782E+00  0.00000000000E+00 0. -1.
<mgrwt>
<rscale>  1 0.65509157E+03</rscale>
<asrwt>0</asrwt>
<pdfrwt beam="1">  1        1 0.39264056E+00 0.65509157E+03</pdfrwt>
<pdfrwt beam="2">0</pdfrwt>
<totfact> 0.14412524E+00</totfact>
</mgrwt>
</event>
<event>
 6    1  0.2922874E-003  0.6449263E+03  0.7818608E-02  0.9816346E-01
          1   -1    0    0  502    0  0.00000000000E+00  0.00000000000E+00  0.10398873884E+03  0.10398873884E+03  0.00000000000E+00 0.  1.
         13   -1    0    0    0    0 -0.00000000000E+00 -0.00000000000E+00 -0.10000000000E+04  0.10000000000E+04  0.00000000000E+00 0.  1.
    9000005    2    1    2  501    0 -0.46113647960E-03  0.59191619977E-03 -0.89601749742E+03  0.11039824576E+04  0.64492628339E+03 0.  0.
         13    1    3    3    0    0  0.21495064510E+03 -0.34546565549E+02 -0.85520419775E+03  0.88248029149E+03  0.00000000000E+00 0.  1.
          1    1    3    3  501    0 -0.21495110624E+03  0.34547157465E+02 -0.40813299668E+02  0.22150216611E+03  0.00000000000E+00 0.  1.
         21    1    1    2  502  501  0.46113647960E-03 -0.59191619977E-03  0.62362587490E-02  0.62812367274E-02  0.00000000000E+00 0.  1.
<mgrwt>
<rscale>  1 0.64492628E+03</rscale>
<asrwt>0</asrwt>
<pdfrwt beam="1">  1        1 0.37814167E+00 0.64492628E+03</pdfrwt>
<pdfrwt beam="2">0</pdfrwt>
<totfact> 0.16737936E+00</totfact>
</mgrwt>
</event>
<event>
 6    1  0.2922874E-003  0.6518679E+03  0.7818608E-02  0.9803280E-01
          1   -1    0    0  502    0  0.00000000000E+00  0.00000000000E+00  0.11236927062E+03  0.11236927062E+03  0.00000000000E+00 0.  1.
         13   -1    0    0    0    0 -0.00000000000E+00 -0.00000000000E+00 -0.10000000000E+04  0.10000000000E+04  0.00000000000E+00 0.  1.
    9000005    2    1    2  501    0  0.11614479256E+02  0.81583599765E+00 -0.88691484145E+03  0.11007041854E+04  0.65176391903E+03 0.  0.
         13    1    3    3    0    0  0.20595930891E+03  0.45229535657E+02 -0.20740730992E+02  0.21188469918E+03  0.00000000000E+00 0.  1.
          1    1    3    3  501    0 -0.19434482966E+03 -0.44413699659E+02 -0.86617411046E+03  0.88881948626E+03  0.00000000000E+00 0.  1.
         21    1    1    2  502  501 -0.11614479256E+02 -0.81583599765E+00 -0.71588793239E+00  0.11665085182E+02  0.00000000000E+00 0. -1.
<mgrwt>
<rscale>  1 0.65186791E+03</rscale>
<asrwt>0</asrwt>
<pdfrwt beam="1">  1        1 0.40861639E+00 0.65186791E+03</pdfrwt>
<pdfrwt beam="2">0</pdfrwt>
<totfact> 0.12239406E+00</totfact>
</mgrwt>
</event>
<event>
 6    1  0.2922874E-003  0.6547943E+03  0.7818608E-02  0.9797824E-01
          1   -1    0    0  502    0  0.00000000000E+00  0.00000000000E+00  0.10718956189E+03  0.10718956189E+03  0.00000000000E+00 0.  1.
         13   -1    0    0    0    0 -0.00000000000E+00 -0.00000000000E+00 -0.10000000000E+04  0.10000000000E+04  0.00000000000E+00 0.  1.
    9000005    2    1    2  501    0  0.15568046035E-02  0.12784599297E-02 -0.89280702096E+03  0.11071855952E+04  0.65479429246E+03 0.  0.
         13    1    3    3    0    0  0.23206943668E+03 -0.98233859790E+02 -0.79980830305E+03  0.83856987561E+03  0.00000000000E+00 0.  1.
          1    1    3    3  501    0 -0.23206787987E+03  0.98235138250E+02 -0.92998717914E+02  0.26861571955E+03  0.00000000000E+00 0.  1.
         21    1    1    2  502  501 -0.15568046035E-02 -0.12784599297E-02 -0.34171479715E-02  0.39667367728E-02  0.00000000000E+00 0. -1.
<mgrwt>
<rscale>  1 0.65479429E+03</rscale>
<asrwt>0</asrwt>
<pdfrwt beam="1">  1        1 0.38978105E+00 0.65479429E+03</pdfrwt>
<pdfrwt beam="2">0</pdfrwt>
<totfact> 0.14840659E+00</totfact>
</mgrwt>
</event>
<event>
 6    1  0.2922874E-003  0.6544210E+03  0.7818608E-02  0.9798519E-01
          1   -1    0    0  502    0  0.00000000000E+00  0.00000000000E+00  0.10707044519E+03  0.10707044519E+03  0.00000000000E+00 0.  1.
         13   -1    0    0    0    0 -0.00000000000E+00 -0.00000000000E+00 -0.10000000000E+04  0.10000000000E+04  0.00000000000E+00 0.  1.
    9000005    2    1    2  501    0  0.12366958544E-02  0.95818019587E-03 -0.89293309990E+03  0.11070665702E+04  0.65442101896E+03 0.  0.
         13    1    3    3    0    0 -0.30036946604E+03 -0.12462806148E+03 -0.38518451681E+03  0.50410423706E+03  0.00000000000E+00 0.  1.
          1    1    3    3  501    0  0.30037070274E+03  0.12462901966E+03 -0.50774858309E+03  0.60296233318E+03  0.00000000000E+00 0.  1.
         21    1    1    2  502  501 -0.12366958544E-02 -0.95818019587E-03  0.35450910376E-02  0.38749446949E-02  0.00000000000E+00 0.  1.
<mgrwt>
<rscale>  1 0.65442102E+03</rscale>
<asrwt>0</asrwt>
<pdfrwt beam="1">  1        1 0.38934789E+00 0.65442102E+03</pdfrwt>
<pdfrwt beam="2">0</pdfrwt>
<totfact> 0.14907463E+00</totfact>
</mgrwt>
</event>
<event>
 6    1  0.2922874E-003  0.6500377E+03  0.7818608E-02  0.9806709E-01
          1   -1    0    0  502    0  0.00000000000E+00  0.00000000000E+00  0.10579119649E+03  0.10579119649E+03  0.00000000000E+00 0.  1.
         13   -1    0    0    0    0 -0.00000000000E+00 -0.00000000000E+00 -0.10000000000E+04  0.10000000000E+04  0.00000000000E+00 0.  1.
    9000005    2    1    2  501    0  0.25146165829E-01  0.45280246328E-01 -0.89435793119E+03  0.11056333304E+04  0.65003765243E+03 0.  0.
         13    1    3    3    0    0  0.99486076894E+01 -0.33377934125E+02  0.10245381189E+03  0.10821203654E+03  0.00000000000E+00 0.  1.
          1    1    3    3  501    0 -0.99234615236E+01  0.33423214371E+02 -0.99681174308E+03  0.99742129388E+03  0.00000000000E+00 0.  1.
         21    1    1    2  502  501 -0.25146165829E-01 -0.45280246328E-01  0.14912768469E+00  0.15786607205E+00  0.00000000000E+00 0. -1.
<mgrwt>
<rscale>  1 0.65003765E+03</rscale>
<asrwt>0</asrwt>
<pdfrwt beam="1">  1        1 0.38469607E+00 0.65003765E+03</pdfrwt>
<pdfrwt beam="2">0</pdfrwt>
<totfact> 0.15644203E+00</totfact>
</mgrwt>
</event>
<event>
 6    1  0.2922874E-003  0.6472888E+03  0.7818608E-02  0.9811880E-01
          3   -1    0    0  502    0  0.00000000000E+00  0.00000000000E+00  0.10487571700E+03  0.10487571700E+03  0.00000000000E+00 0.  1.
         13   -1    0    0    0    0 -0.00000000000E+00 -0.00000000000E+00 -0.10000000000E+04  0.10000000000E+04  0.00000000000E+00 0.  1.
    9000005    2    1    2  501    0  0.23070636302E-02  0.12129434910E-02 -0.89525429350E+03  0.11047456804E+04  0.64728878275E+03 0.  0.
         13    1    3    3    0    0  0.75790971662E+01 -0.88427102907E+02  0.83570770685E+02  0.12190516378E+03  0.00000000000E+00 0.  1.
          3    1    3    3  501    0 -0.75767901026E+01  0.88428315850E+02 -0.97882506418E+03  0.98284051660E+03  0.00000000000E+00 0.  1.
         21    1    1    2  502  501 -0.23070636302E-02 -0.12129434910E-02  0.13001050459E+00  0.13003662976E+00  0.00000000000E+00 0.  1.
<mgrwt>
<rscale>  1 0.64728878E+03</rscale>
<asrwt>0</asrwt>
<pdfrwt beam="1">  1        3 0.38136705E+00 0.64728878E+03</pdfrwt>
<pdfrwt beam="2">0</pdfrwt>
<totfact> 0.74268180E-02</totfact>
</mgrwt>
</event>
<event>
 6    1  0.7253998E-003  0.6501193E+03  0.7818608E-02  0.9806555E-01
          1   -1    0    0  502    0  0.00000000000E+00  0.00000000000E+00  0.10566379211E+03  0.10566379211E+03  0.00000000000E+00 0.  1.
         13   -1    0    0    0    0 -0.00000000000E+00 -0.00000000000E+00 -0.10000000000E+04  0.10000000000E+04  0.00000000000E+00 0.  1.
    9000005    2    1    2  501    0 -0.12183821809E-05  0.40284412393E-05 -0.89433620799E+03  0.11056637879E+04  0.65011934208E+03 0.  0.
         13    1    3    3    0    0 -0.30311755736E+03 -0.10547721248E+03 -0.53485105254E+03  0.62375583712E+03  0.00000000000E+00 0.  1.
          3    1    3    3  501    0  0.30311755614E+03  0.10547721650E+03 -0.35948515545E+03  0.48190795078E+03  0.00000000000E+00 0.  1.
         21    1    1    2  502  501  0.12183822123E-05 -0.40284412435E-05  0.10064107921E-06  0.42098601751E-05  0.00000000000E+00 0.  1.
<mgrwt>
<rscale>  1 0.65011934E+03</rscale>
<asrwt>0</asrwt>
<pdfrwt beam="1">  1        1 0.38423278E+00 0.65011934E+03</pdfrwt>
<pdfrwt beam="2">0</pdfrwt>
<totfact> 0.15717939E+00</totfact>
</mgrwt>
</event>
<event>
 6    1  0.2922874E-003  0.6468994E+03  0.7818608E-02  0.9812615E-01
          1   -1    0    0  502    0  0.00000000000E+00  0.00000000000E+00  0.10490898980E+03  0.10490898980E+03  0.00000000000E+00 0.  1.
         13   -1    0    0    0    0 -0.00000000000E+00 -0.00000000000E+00 -0.10000000000E+04  0.10000000000E+04  0.00000000000E+00 0.  1.
    9000005    2    1    2  501    0  0.80645519705E-03 -0.11183981504E-01 -0.89538018288E+03  0.11046195998E+04  0.64689936484E+03 0.  0.
         13    1    3    3    0    0  0.28475526272E+03 -0.15128578437E+03 -0.40420433579E+03  0.51706294904E+03  0.00000000000E+00 0.  1.
          3    1    3    3  501    0 -0.28475445626E+03  0.15127460039E+03 -0.49117584710E+03  0.58755665076E+03  0.00000000000E+00 0.  1.
         21    1    1    2  502  501 -0.80645519703E-03  0.11183981504E-01  0.28917268054E+00  0.28938999807E+00  0.00000000000E+00 0.  1.
<mgrwt>
<rscale>  1 0.64689936E+03</rscale>
<asrwt>0</asrwt>
<pdfrwt beam="1">  1        1 0.38148804E+00 0.64689936E+03</pdfrwt>
<pdfrwt beam="2">0</pdfrwt>
<totfact> 0.16172637E+00</totfact>
</mgrwt>
</event>
<event>
 6    1  0.2922874E-003  0.6383167E+03  0.7818608E-02  0.9828952E-01
          1   -1    0    0  502    0  0.00000000000E+00  0.00000000000E+00  0.10186416763E+03  0.10186416763E+03  0.00000000000E+00 0.  1.
         13   -1    0    0    0    0 -0.00000000000E+00 -0.00000000000E+00 -0.10000000000E+04  0.10000000000E+04  0.00000000000E+00 0.  1.
    9000005    2    1    2  501    0  0.95685314983E-03 -0.12079509942E-02 -0.89813761778E+03  0.11018618092E+04  0.63831674425E+03 0.  0.
         13    1    3    3    0    0  0.90110892430E+02  0.10154614985E+03  0.49532278895E+02  0.14451657392E+03  0.00000000000E+00 0.  1.
          1    1    3    3  501    0 -0.90109935577E+02 -0.10154735780E+03 -0.94766989668E+03  0.95734523524E+03  0.00000000000E+00 0.  1.
         21    1    1    2  502  501 -0.95685314983E-03  0.12079509942E-02  0.17854085649E-02  0.23584735102E-02  0.00000000000E+00 0. -1.
<mgrwt>
<rscale>  1 0.63831674E+03</rscale>
<asrwt>0</asrwt>
<pdfrwt beam="1">  1        1 0.37041594E+00 0.63831674E+03</pdfrwt>
<pdfrwt beam="2">0</pdfrwt>
<totfact> 0.18122701E+00</totfact>
</mgrwt>
</event>
<event>
 6    1  0.2922874E-003  0.6533982E+03  0.7818608E-02  0.9800423E-01
          1   -1    0    0  502    0  0.00000000000E+00  0.00000000000E+00  0.10673936686E+03  0.10673936686E+03  0.00000000000E+00 0.  1.
         13   -1    0    0    0    0 -0.00000000000E+00 -0.00000000000E+00 -0.10000000000E+04  0.10000000000E+04  0.00000000000E+00 0.  1.
    9000005    2    1    2  501    0  0.23056866502E-02  0.86645313175E-03 -0.89326744536E+03  0.11067321230E+04  0.65339824240E+03 0.  0.
         13    1    3    3    0    0  0.47019643915E+02  0.13120950442E+03  0.53844968594E+02  0.14941908047E+03  0.00000000000E+00 0.  1.
          1    1    3    3  501    0 -0.47017338229E+02 -0.13120863797E+03 -0.94711241395E+03  0.95731304255E+03  0.00000000000E+00 0.  1.
         21    1    1    2  502  501 -0.23056866502E-02 -0.86645313176E-03  0.68122159869E-02  0.72438400459E-02  0.00000000000E+00 0. -1.
<mgrwt>
<rscale>  1 0.65339824E+03</rscale>
<asrwt>0</asrwt>
<pdfrwt beam="1">  1        1 0.38814397E+00 0.65339824E+03</pdfrwt>
<pdfrwt beam="2">0</pdfrwt>
<totfact> 0.15094600E+00</totfact>
</mgrwt>
</event>
<event>
 6    1  0.2922874E-003  0.6191392E+03  0.7818608E-02  0.9866475E-01
          1   -1    0    0  502    0  0.00000000000E+00  0.00000000000E+00  0.95935609292E+02  0.95935609292E+02  0.00000000000E+00 0.  1.
         13   -1    0    0    0    0 -0.00000000000E+00 -0.00000000000E+00 -0.10000000000E+04  0.10000000000E+04  0.00000000000E+00 0.  1.
    9000005    2    1    2  501    0 -0.62751483926E-02 -0.35235548362E-02 -0.90416652260E+03  0.10958332242E+04  0.61913920447E+03 0.  0.
         13    1    3    3    0    0  0.23028375796E+03  0.52116827811E+02 -0.97717731978E+02  0.25552989662E+03  0.00000000000E+00 0.  1.
          3    1    3    3  501    0 -0.23029003311E+03 -0.52120351366E+02 -0.80644879062E+03  0.84030332754E+03  0.00000000000E+00 0.  1.
         21    1    1    2  502  501  0.62751483926E-02  0.35235548362E-02  0.10213189274E+00  0.10238513780E+00  0.00000000000E+00 0. -1.
<mgrwt>
<rscale>  1 0.61913920E+03</rscale>
<asrwt>0</asrwt>
<pdfrwt beam="1">  1        1 0.34885750E+00 0.61913920E+03</pdfrwt>
<pdfrwt beam="2">0</pdfrwt>
<totfact> 0.22594697E+00</totfact>
</mgrwt>
</event>
<event>
 6    1  0.2922874E-003  0.6514847E+03  0.7818608E-02  0.9803997E-01
          1   -1    0    0  502    0  0.00000000000E+00  0.00000000000E+00  0.10972604124E+03  0.10972604124E+03  0.00000000000E+00 0.  1.
         13   -1    0    0    0    0 -0.00000000000E+00 -0.00000000000E+00 -0.10000000000E+04  0.10000000000E+04  0.00000000000E+00 0.  1.
    9000005    2    1    2  501    0  0.47707737095E+00 -0.44434107421E+01 -0.89229776570E+03  0.11048201982E+04  0.65146941300E+03 0.  0.
         13    1    3    3    0    0 -0.18536104171E+03 -0.25400481924E+03 -0.29415411247E+03  0.43058542226E+03  0.00000000000E+00 0.  1.
          1    1    3    3  501    0  0.18583811909E+03  0.24956140850E+03 -0.59814365323E+03  0.67423477589E+03  0.00000000000E+00 0.  1.
         21    1    1    2  502  501 -0.47707737095E+00  0.44434107421E+01  0.20238069359E+01  0.49058430830E+01  0.00000000000E+00 0.  1.
<mgrwt>
<rscale>  1 0.65148474E+03</rscale>
<asrwt>0</asrwt>
<pdfrwt beam="1">  1        1 0.39900463E+00 0.65148474E+03</pdfrwt>
<pdfrwt beam="2">0</pdfrwt>
<totfact> 0.13512258E+00</totfact>
</mgrwt>
</event>
<event>
 6    1  0.2922874E-003  0.6525799E+03  0.7818608E-02  0.9801950E-01
          1   -1    0    0  502    0  0.00000000000E+00  0.00000000000E+00  0.10646872167E+03  0.10646872167E+03  0.00000000000E+00 0.  1.
         13   -1    0    0    0    0 -0.00000000000E+00 -0.00000000000E+00 -0.10000000000E+04  0.10000000000E+04  0.00000000000E+00 0.  1.
    9000005    2    1    2  501    0 -0.14321207391E-03  0.21624379427E-03 -0.89353484899E+03  0.11064651416E+04  0.65257994394E+03 0.  0.
         13    1    3    3    0    0 -0.18713672843E+03  0.10441616165E+03 -0.29577911490E+02  0.21632785948E+03  0.00000000000E+00 0.  1.
          1    1    3    3  501    0  0.18713658521E+03 -0.10441594540E+03 -0.86395693750E+03  0.89013728213E+03  0.00000000000E+00 0.  1.
         21    1    1    2  502  501  0.14321207392E-03 -0.21624379427E-03  0.35706590016E-02  0.35800665891E-02  0.00000000000E+00 0.  1.
<mgrwt>
<rscale>  1 0.65257994E+03</rscale>
<asrwt>0</asrwt>
<pdfrwt beam="1">  1        1 0.38715980E+00 0.65257994E+03</pdfrwt>
<pdfrwt beam="2">0</pdfrwt>
<totfact> 0.15249183E+00</totfact>
</mgrwt>
</event>
<event>
 6    1  0.2922874E-003  0.6664685E+03  0.7818608E-02  0.9776359E-01
          1   -1    0    0  502    0  0.00000000000E+00  0.00000000000E+00  0.11112572319E+03  0.11112572319E+03  0.00000000000E+00 0.  1.
         13   -1    0    0    0    0 -0.00000000000E+00 -0.00000000000E+00 -0.10000000000E+04  0.10000000000E+04  0.00000000000E+00 0.  1.
    9000005    2    1    2  501    0  0.44525506089E-01 -0.28248314320E-01 -0.88894525853E+03  0.11110372987E+04  0.66646845659E+03 0.  0.
         13    1    3    3    0    0 -0.15861392237E+03  0.29229172014E+03 -0.40959677785E+03  0.52760055578E+03  0.00000000000E+00 0.  1.
          1    1    3    3  501    0  0.15865844788E+03 -0.29231996846E+03 -0.47934848068E+03  0.58343674291E+03  0.00000000000E+00 0.  1.
         21    1    1    2  502  501 -0.44525506089E-01  0.28248314320E-01  0.70981717428E-01  0.88424499792E-01  0.00000000000E+00 0. -1.
<mgrwt>
<rscale>  1 0.66646846E+03</rscale>
<asrwt>0</asrwt>
<pdfrwt beam="1">  1        1 0.40409439E+00 0.66646846E+03</pdfrwt>
<pdfrwt beam="2">0</pdfrwt>
<totfact> 0.12787556E+00</totfact>
</mgrwt>
</event>
<event>
 6    1  0.2922874E-003  0.6713766E+03  0.7818608E-02  0.9767474E-01
          1   -1    0    0  502    0  0.00000000000E+00  0.00000000000E+00  0.11703526699E+03  0.11703526699E+03  0.00000000000E+00 0.  1.
         13   -1    0    0    0    0 -0.00000000000E+00 -0.00000000000E+00 -0.10000000000E+04  0.10000000000E+04  0.00000000000E+00 0.  1.
    9000005    2    1    2  501    0  0.21183900465E+00  0.27413928576E-01 -0.88731044028E+03  0.11126843132E+04  0.67137658418E+03 0.  0.
         13    1    3    3    0    0  0.27820217162E+03 -0.13944397071E+03 -0.23477947850E+03  0.38982364319E+03  0.00000000000E+00 0.  1.
          3    1    3    3  501    0 -0.27799033262E+03  0.13947138464E+03 -0.65253096178E+03  0.72286067001E+03  0.00000000000E+00 0.  1.
         21    1    1    2  502  501 -0.21183900465E+00 -0.27413928576E-01  0.43457072663E+01  0.43509537956E+01  0.00000000000E+00 0. -1.
<mgrwt>
<rscale>  1 0.67137662E+03</rscale>
<asrwt>0</asrwt>
<pdfrwt beam="1">  1        1 0.42558369E+00 0.67137662E+03</pdfrwt>
<pdfrwt beam="2">0</pdfrwt>
<totfact> 0.10225887E+00</totfact>
</mgrwt>
</event>
<event>
 6    1  0.2922874E-003  0.6299471E+03  0.7818608E-02  0.9845152E-01
          1   -1    0    0  502    0  0.00000000000E+00  0.00000000000E+00  0.99208486745E+02  0.99208486745E+02  0.00000000000E+00 0.  1.
         13   -1    0    0    0    0 -0.00000000000E+00 -0.00000000000E+00 -0.10000000000E+04  0.10000000000E+04  0.00000000000E+00 0.  1.
    9000005    2    1    2  501    0  0.22585574669E-04  0.32804762174E-04 -0.90079167515E+03  0.10992083200E+04  0.62994705238E+03 0.  0.
         13    1    3    3    0    0 -0.19438530465E+03 -0.19619269664E+02 -0.88149305761E+03  0.90288458455E+03  0.00000000000E+00 0.  1.
          3    1    3    3  501    0  0.19438532723E+03  0.19619302469E+02 -0.19298617542E+02  0.19632373548E+03  0.00000000000E+00 0.  1.
         21    1    1    2  502  501 -0.22585574670E-04 -0.32804762177E-04  0.16189256276E-03  0.16671971234E-03  0.00000000000E+00 0. -1.
<mgrwt>
<rscale>  1 0.62994705E+03</rscale>
<asrwt>0</asrwt>
<pdfrwt beam="1">  1        1 0.36075889E+00 0.62994705E+03</pdfrwt>
<pdfrwt beam="2">0</pdfrwt>
<totfact> 0.20008492E+00</totfact>
</mgrwt>
</event>
<event>
 6    1  0.2922874E-003  0.6587116E+03  0.7818608E-02  0.9790568E-01
          1   -1    0    0  502    0  0.00000000000E+00  0.00000000000E+00  0.10847559859E+03  0.10847559859E+03  0.00000000000E+00 0.  1.
         13   -1    0    0    0    0 -0.00000000000E+00 -0.00000000000E+00 -0.10000000000E+04  0.10000000000E+04  0.00000000000E+00 0.  1.
    9000005    2    1    2  501    0  0.20414529587E-04  0.10850069685E-04 -0.89152475830E+03  0.11084752410E+04  0.65871159482E+03 0.  0.
         13    1    3    3    0    0  0.23917308204E+03  0.22010881074E+03 -0.35634293647E+03  0.48231933417E+03  0.00000000000E+00 0.  1.
          3    1    3    3  501    0 -0.23917306162E+03 -0.22010879989E+03 -0.53518182182E+03  0.62615590679E+03  0.00000000000E+00 0.  1.
         21    1    1    2  502  501 -0.20414529591E-04 -0.10850069684E-04  0.35688938121E-03  0.35763739660E-03  0.00000000000E+00 0.  1.
<mgrwt>
<rscale>  1 0.65871159E+03</rscale>
<asrwt>0</asrwt>
<pdfrwt beam="1">  1        1 0.39445755E+00 0.65871159E+03</pdfrwt>
<pdfrwt beam="2">0</pdfrwt>
<totfact> 0.14137551E+00</totfact>
</mgrwt>
</event>
<event>
 6    1  0.2922874E-003  0.7071357E+03  0.7818608E-02  0.9705106E-01
          1   -1    0    0  502    0  0.00000000000E+00  0.00000000000E+00  0.12501031736E+03  0.12501031736E+03  0.00000000000E+00 0.  1.
         13   -1    0    0    0    0 -0.00000000000E+00 -0.00000000000E+00 -0.10000000000E+04  0.10000000000E+04  0.00000000000E+00 0.  1.
    9000005    2    1    2  501    0 -0.15790437260E-05 -0.39597500177E-05 -0.87498976574E+03  0.11250102342E+04  0.70713572729E+03 0.  0.
         13    1    3    3    0    0 -0.31327067350E+03 -0.15170616770E+03 -0.33869050192E+03  0.48565886411E+03  0.00000000000E+00 0.  1.
          3    1    3    3  501    0  0.31327067192E+03  0.15170616375E+03 -0.53629926382E+03  0.63935137004E+03  0.00000000000E+00 0.  1.
         21    1    1    2  502  501  0.15790437608E-05  0.39597500289E-05  0.83096643260E-04  0.83205919985E-04  0.00000000000E+00 0. -1.
<mgrwt>
<rscale>  1 0.70713573E+03</rscale>
<asrwt>0</asrwt>
<pdfrwt beam="1">  1        1 0.45458393E+00 0.70713573E+03</pdfrwt>
<pdfrwt beam="2">0</pdfrwt>
<totfact> 0.74800578E-01</totfact>
</mgrwt>
</event>
<event>
 6    1  0.2922874E-003  0.6466578E+03  0.7818608E-02  0.9813071E-01
          1   -1    0    0  502    0  0.00000000000E+00  0.00000000000E+00  0.10462483514E+03  0.10462483514E+03  0.00000000000E+00 0.  1.
         13   -1    0    0    0    0 -0.00000000000E+00 -0.00000000000E+00 -0.10000000000E+04  0.10000000000E+04  0.00000000000E+00 0.  1.
    9000005    2    1    2  501    0 -0.48651875823E-02 -0.26108117584E-01 -0.89545608343E+03  0.11045396699E+04  0.64665777990E+03 0.  0.
         13    1    3    3    0    0  0.11607705092E+03 -0.76114059577E+02 -0.94652324201E+03  0.95664699837E+03  0.00000000000E+00 0.  1.
          3    1    3    3  501    0 -0.11608191611E+03  0.76087951459E+02  0.51067158579E+02  0.14789267152E+03  0.00000000000E+00 0.  1.
         21    1    1    2  502  501  0.48651875823E-02  0.26108117584E-01  0.80918576034E-01  0.85165249964E-01  0.00000000000E+00 0.  1.
<mgrwt>
<rscale>  1 0.64665778E+03</rscale>
<asrwt>0</asrwt>
<pdfrwt beam="1">  1        1 0.38045475E+00 0.64665778E+03</pdfrwt>
<pdfrwt beam="2">0</pdfrwt>
<totfact> 0.16344114E+00</totfact>
</mgrwt>
</event>
<event>
 6    1  0.2922874E-003  0.6323885E+03  0.7818608E-02  0.9840399E-01
          1   -1    0    0  502    0  0.00000000000E+00  0.00000000000E+00  0.99996100167E+02  0.99996100167E+02  0.00000000000E+00 0.  1.
         13   -1    0    0    0    0 -0.00000000000E+00 -0.00000000000E+00 -0.10000000000E+04  0.10000000000E+04  0.00000000000E+00 0.  1.
    9000005    2    1    2  501    0 -0.40400233611E-03  0.16325216647E-01 -0.90001687215E+03  0.10999752445E+04  0.63238846304E+03 0.  0.
         13    1    3    3    0    0  0.29906751986E+02  0.25906350191E+03 -0.76104786494E+03  0.80448875975E+03  0.00000000000E+00 0.  1.
          1    1    3    3  501    0 -0.29907155988E+02 -0.25904717669E+03 -0.13896900721E+03  0.29548648479E+03  0.00000000000E+00 0.  1.
         21    1    1    2  502  501  0.40400233611E-03 -0.16325216647E-01  0.12972318184E-01  0.20855621677E-01  0.00000000000E+00 0. -1.
<mgrwt>
<rscale>  1 0.63238846E+03</rscale>
<asrwt>0</asrwt>
<pdfrwt beam="1">  1        1 0.36362295E+00 0.63238846E+03</pdfrwt>
<pdfrwt beam="2">0</pdfrwt>
<totfact> 0.19430582E+00</totfact>
</mgrwt>
</event>
<event>
 6    1  0.2922874E-003  0.6607817E+03  0.7818608E-02  0.9786756E-01
          1   -1    0    0  502    0  0.00000000000E+00  0.00000000000E+00  0.10915833804E+03  0.10915833804E+03  0.00000000000E+00 0.  1.
         13   -1    0    0    0    0 -0.00000000000E+00 -0.00000000000E+00 -0.10000000000E+04  0.10000000000E+04  0.00000000000E+00 0.  1.
    9000005    2    1    2  501    0  0.62367063052E-05 -0.23377132692E-05 -0.89084187829E+03  0.11091581216E+04  0.66078172387E+03 0.  0.
         13    1    3    3    0    0 -0.43494188924E+02 -0.43378255795E+02 -0.99033025231E+03  0.99223355425E+03  0.00000000000E+00 0.  1.
          3    1    3    3  501    0  0.43494195161E+02  0.43378253457E+02  0.99488374019E+02  0.11692456735E+03  0.00000000000E+00 0.  1.
         21    1    1    2  502  501 -0.62367063058E-05  0.23377132630E-05  0.21633104761E-03  0.21643355463E-03  0.00000000000E+00 0.  1.
<mgrwt>
<rscale>  1 0.66078172E+03</rscale>
<asrwt>0</asrwt>
<pdfrwt beam="1">  1        1 0.39694025E+00 0.66078172E+03</pdfrwt>
<pdfrwt beam="2">0</pdfrwt>
<totfact> 0.13777241E+00</totfact>
</mgrwt>
</event>
<event>
 6    1  0.2922874E-003  0.6492028E+03  0.7818608E-02  0.9808276E-01
          1   -1    0    0  502    0  0.00000000000E+00  0.00000000000E+00  0.10536607040E+03  0.10536607040E+03  0.00000000000E+00 0.  1.
         13   -1    0    0    0    0 -0.00000000000E+00 -0.00000000000E+00 -0.10000000000E+04  0.10000000000E+04  0.00000000000E+00 0.  1.
    9000005    2    1    2  501    0 -0.26257982881E-05 -0.24469278515E-05 -0.89463393174E+03  0.11053660662E+04  0.64920279461E+03 0.  0.
         13    1    3    3    0    0 -0.31099258733E+03 -0.61878173160E+02 -0.32909886887E+03  0.45700258553E+03  0.00000000000E+00 0.  1.
          1    1    3    3  501    0  0.31099258471E+03  0.61878170713E+02 -0.56553506287E+03  0.64836348069E+03  0.00000000000E+00 0.  1.
         21    1    1    2  502  501  0.26257983339E-05  0.24469278571E-05  0.21392365092E-05  0.41783496348E-05  0.00000000000E+00 0.  1.
<mgrwt>
<rscale>  1 0.64920279E+03</rscale>
<asrwt>0</asrwt>
<pdfrwt beam="1">  1        1 0.38315015E+00 0.64920279E+03</pdfrwt>
<pdfrwt beam="2">0</pdfrwt>
<totfact> 0.15894782E+00</totfact>
</mgrwt>
</event>
<event>
 6    1  0.2922874E-003  0.6108634E+03  0.7818608E-02  0.9883121E-01
          1   -1    0    0  502    0  0.00000000000E+00  0.00000000000E+00  0.94785760756E+02  0.94785760756E+02  0.00000000000E+00 0.  1.
         13   -1    0    0    0    0 -0.00000000000E+00 -0.00000000000E+00 -0.10000000000E+04  0.10000000000E+04  0.00000000000E+00 0.  1.
    9000005    2    1    2  501    0 -0.42362015177E+00  0.81982541577E-01 -0.90667741281E+03  0.10932602929E+04  0.61086328344E+03 0.  0.
         13    1    3    3    0    0 -0.16260888575E+02  0.17473122205E+03 -0.90086517114E+03  0.91779816573E+03  0.00000000000E+00 0.  1.
          3    1    3    3  501    0  0.15837268423E+02 -0.17464923951E+03 -0.58122416690E+01  0.17546212721E+03  0.00000000000E+00 0.  1.
         21    1    1    2  502  501  0.42362015177E+00 -0.81982541577E-01  0.14631735629E+01  0.15254678120E+01  0.00000000000E+00 0. -1.
<mgrwt>
<rscale>  1 0.61086344E+03</rscale>
<asrwt>0</asrwt>
<pdfrwt beam="1">  1        1 0.34467622E+00 0.61086344E+03</pdfrwt>
<pdfrwt beam="2">0</pdfrwt>
<totfact> 0.23596472E+00</totfact>
</mgrwt>
</event>
<event>
 6    1  0.2922874E-003  0.6455879E+03  0.7818608E-02  0.9815094E-01
          1   -1    0    0  502    0  0.00000000000E+00  0.00000000000E+00  0.10420264841E+03  0.10420264841E+03  0.00000000000E+00 0.  1.
         13   -1    0    0    0    0 -0.00000000000E+00 -0.00000000000E+00 -0.10000000000E+04  0.10000000000E+04  0.00000000000E+00 0.  1.
    9000005    2    1    2  501    0 -0.85446885757E-03 -0.87162231702E-03 -0.89580400299E+03  0.11041958859E+04  0.64558790476E+03 0.  0.
         13    1    3    3    0    0 -0.23301221543E+03  0.10993149049E+03 -0.78050886001E+03  0.82193290827E+03  0.00000000000E+00 0.  1.
          3    1    3    3  501    0  0.23301136096E+03 -0.10993236211E+03 -0.11529514298E+03  0.28226297768E+03  0.00000000000E+00 0.  1.
         21    1    1    2  502  501  0.85446885758E-03  0.87162231702E-03  0.66513923489E-02  0.67624598092E-02  0.00000000000E+00 0. -1.
<mgrwt>
<rscale>  1 0.64558790E+03</rscale>
<asrwt>0</asrwt>
<pdfrwt beam="1">  1        1 0.37891952E+00 0.64558790E+03</pdfrwt>
<pdfrwt beam="2">0</pdfrwt>
<totfact> 0.16604259E+00</totfact>
</mgrwt>
</event>
<event>
 6    1  0.2922874E-003  0.6529073E+03  0.7818608E-02  0.9801339E-01
          1   -1    0    0  502    0  0.00000000000E+00  0.00000000000E+00  0.13221770492E+03  0.13221770492E+03  0.00000000000E+00 0.  1.
         13   -1    0    0    0    0 -0.00000000000E+00 -0.00000000000E+00 -0.10000000000E+04  0.10000000000E+04  0.00000000000E+00 0.  1.
    9000005    2    1    2  501    0  0.27487333116E+01  0.39415284222E+01 -0.89317869773E+03  0.11063706848E+04  0.65288958864E+03 0.  0.
         13    1    3    3    0    0  0.29339202711E+03  0.16735987951E+02 -0.20239072453E+03  0.35682065557E+03  0.00000000000E+00 0.  1.
          3    1    3    3  501    0 -0.29064329380E+03 -0.12794459528E+02 -0.69078797319E+03  0.74955002924E+03  0.00000000000E+00 0.  1.
         21    1    1    2  502  501 -0.27487333116E+01 -0.39415284222E+01  0.25396402649E+02  0.25847020111E+02  0.00000000000E+00 0.  1.
<mgrwt>
<rscale>  1 0.65290727E+03</rscale>
<asrwt>0</asrwt>
<pdfrwt beam="1">  1        1 0.48079267E+00 0.65290727E+03</pdfrwt>
<pdfrwt beam="2">0</pdfrwt>
<totfact> 0.57048074E-01</totfact>
</mgrwt>
</event>
<event>
 6    1  0.2922874E-003  0.6616834E+03  0.7818608E-02  0.9785100E-01
          1   -1    0    0  502    0  0.00000000000E+00  0.00000000000E+00  0.10945815422E+03  0.10945815422E+03  0.00000000000E+00 0.  1.
         13   -1    0    0    0    0 -0.00000000000E+00 -0.00000000000E+00 -0.10000000000E+04  0.10000000000E+04  0.00000000000E+00 0.  1.
    9000005    2    1    2  501    0  0.28671215722E-03  0.83109822953E-04 -0.89054375133E+03  0.11094562254E+04  0.66168341607E+03 0.  0.
         13    1    3    3    0    0  0.13628325443E+03 -0.10329247871E+03 -0.92015259405E+03  0.93590771871E+03  0.00000000000E+00 0.  1.
          3    1    3    3  501    0 -0.13628296771E+03  0.10329256182E+03  0.29608842718E+02  0.17354850672E+03  0.00000000000E+00 0.  1.
         21    1    1    2  502  501 -0.28671215720E-03 -0.83109822948E-04  0.19055507317E-02  0.19287909930E-02  0.00000000000E+00 0. -1.
<mgrwt>
<rscale>  1 0.66168342E+03</rscale>
<asrwt>0</asrwt>
<pdfrwt beam="1">  1        1 0.39803049E+00 0.66168342E+03</pdfrwt>
<pdfrwt beam="2">0</pdfrwt>
<totfact> 0.13621795E+00</totfact>
</mgrwt>
</event>
<event>
 6    1  0.2922874E-003  0.6386096E+03  0.7818608E-02  0.9828390E-01
          1   -1    0    0  502    0  0.00000000000E+00  0.00000000000E+00  0.10195557848E+03  0.10195557848E+03  0.00000000000E+00 0.  1.
         13   -1    0    0    0    0 -0.00000000000E+00 -0.00000000000E+00 -0.10000000000E+04  0.10000000000E+04  0.00000000000E+00 0.  1.
    9000005    2    1    2  501    0 -0.53677409682E-05 -0.68076453204E-05 -0.89804444701E+03  0.11019555516E+04  0.63860959028E+03 0.  0.
         13    1    3    3    0    0 -0.67303052580E+02  0.30572013397E+03 -0.55762320453E+03  0.63948271238E+03  0.00000000000E+00 0.  1.
          3    1    3    3  501    0  0.67303047213E+02 -0.30572014078E+03 -0.34042124248E+03  0.46247283917E+03  0.00000000000E+00 0.  1.
         21    1    1    2  502  501  0.53677409803E-05  0.68076453189E-05  0.25492822752E-04  0.26926579617E-04  0.00000000000E+00 0.  1.
<mgrwt>
<rscale>  1 0.63860959E+03</rscale>
<asrwt>0</asrwt>
<pdfrwt beam="1">  1        1 0.37074834E+00 0.63860959E+03</pdfrwt>
<pdfrwt beam="2">0</pdfrwt>
<totfact> 0.18060905E+00</totfact>
</mgrwt>
</event>
<event>
 6    1  0.2922874E-003  0.6561611E+03  0.7818608E-02  0.9795286E-01
          1   -1    0    0  502    0  0.00000000000E+00  0.00000000000E+00  0.10794463973E+03  0.10794463973E+03  0.00000000000E+00 0.  1.
         13   -1    0    0    0    0 -0.00000000000E+00 -0.00000000000E+00 -0.10000000000E+04  0.10000000000E+04  0.00000000000E+00 0.  1.
    9000005    2    1    2  501    0 -0.23212453800E-01 -0.55902490394E-01 -0.89235983964E+03  0.11076342020E+04  0.65616113747E+03 0.  0.
         13    1    3    3    0    0  0.83501999868E+01  0.30778484778E+03 -0.63726103466E+03  0.70774491497E+03  0.00000000000E+00 0.  1.
          1    1    3    3  501    0 -0.83734124406E+01 -0.30784075028E+03 -0.25509880498E+03  0.39988928701E+03  0.00000000000E+00 0.  1.
         21    1    1    2  502  501  0.23212453800E-01  0.55902490393E-01  0.30447936932E+00  0.31043774382E+00  0.00000000000E+00 0.  1.
<mgrwt>
<rscale>  1 0.65616114E+03</rscale>
<asrwt>0</asrwt>
<pdfrwt beam="1">  1        1 0.39252679E+00 0.65616114E+03</pdfrwt>
<pdfrwt beam="2">0</pdfrwt>
<totfact> 0.14426428E+00</totfact>
</mgrwt>
</event>
<event>
 6    1  0.2922874E-003  0.6519413E+03  0.7818608E-02  0.9803143E-01
          1   -1    0    0  502    0  0.00000000000E+00  0.00000000000E+00  0.10625720077E+03  0.10625720077E+03  0.00000000000E+00 0.  1.
         13   -1    0    0    0    0 -0.00000000000E+00 -0.00000000000E+00 -0.10000000000E+04  0.10000000000E+04  0.00000000000E+00 0.  1.
    9000005    2    1    2  501    0  0.51797472031E-03  0.54069297553E-03 -0.89374257707E+03  0.11062564197E+04  0.65194131037E+03 0.  0.
         13    1    3    3    0    0  0.27298799344E+03  0.17768652972E+03 -0.46847989103E+03  0.57058597574E+03  0.00000000000E+00 0.  1.
          1    1    3    3  501    0 -0.27298747546E+03 -0.17768598902E+03 -0.42526268603E+03  0.53567044401E+03  0.00000000000E+00 0.  1.
         21    1    1    2  502  501 -0.51797472035E-03 -0.54069297552E-03 -0.22216095874E-03  0.78102637362E-03  0.00000000000E+00 0. -1.
<mgrwt>
<rscale>  1 0.65194131E+03</rscale>
<asrwt>0</asrwt>
<pdfrwt beam="1">  1        1 0.38639064E+00 0.65194131E+03</pdfrwt>
<pdfrwt beam="2">0</pdfrwt>
<totfact> 0.15371038E+00</totfact>
</mgrwt>
</event>
<event>
 6    1  0.2922874E-003  0.6556992E+03  0.7818608E-02  0.9796143E-01
          1   -1    0    0  502    0  0.00000000000E+00  0.00000000000E+00  0.11069272369E+03  0.11069272369E+03  0.00000000000E+00 0.  1.
         13   -1    0    0    0    0 -0.00000000000E+00 -0.00000000000E+00 -0.10000000000E+04  0.10000000000E+04  0.00000000000E+00 0.  1.
    9000005    2    1    2  501    0  0.81206837140E-01  0.10601303724E+00 -0.89251311086E+03  0.11074841090E+04  0.65569915411E+03 0.  0.
         13    1    3    3    0    0 -0.15235788994E+03  0.24939967271E+03 -0.19527389944E+03  0.35148971419E+03  0.00000000000E+00 0.  1.
          3    1    3    3  501    0  0.15243909678E+03 -0.24929365967E+03 -0.69723921142E+03  0.75599439477E+03  0.00000000000E+00 0.  1.
         21    1    1    2  502  501 -0.81206837140E-01 -0.10601303724E+00  0.32058345535E+01  0.32086147320E+01  0.00000000000E+00 0.  1.
<mgrwt>
<rscale>  1 0.65569917E+03</rscale>
<asrwt>0</asrwt>
<pdfrwt beam="1">  1        1 0.40251984E+00 0.65569917E+03</pdfrwt>
<pdfrwt beam="2">0</pdfrwt>
<totfact> 0.13022788E+00</totfact>
</mgrwt>
</event>
<event>
 6    1  0.2922874E-003  0.6522082E+03  0.7818608E-02  0.9802644E-01
          1   -1    0    0  502    0  0.00000000000E+00  0.00000000000E+00  0.10634390617E+03  0.10634390617E+03  0.00000000000E+00 0.  1.
         13   -1    0    0    0    0 -0.00000000000E+00 -0.00000000000E+00 -0.10000000000E+04  0.10000000000E+04  0.00000000000E+00 0.  1.
    9000005    2    1    2  501    0  0.82329520978E-06 -0.14514054101E-05 -0.89365609956E+03  0.11063439002E+04  0.65220824990E+03 0.  0.
         13    1    3    3    0    0  0.90822454024E+02  0.30468704193E+03 -0.32379054154E+03  0.45378764468E+03  0.00000000000E+00 0.  1.
          3    1    3    3  501    0 -0.90822453201E+02 -0.30468704338E+03 -0.56986555802E+03  0.65255625552E+03  0.00000000000E+00 0.  1.
         21    1    1    2  502  501 -0.82329520929E-06  0.14514053673E-05  0.57245166539E-05  0.59627580416E-05  0.00000000000E+00 0.  1.
<mgrwt>
<rscale>  1 0.65220825E+03</rscale>
<asrwt>0</asrwt>
<pdfrwt beam="1">  1        1 0.38670593E+00 0.65220825E+03</pdfrwt>
<pdfrwt beam="2">0</pdfrwt>
<totfact> 0.15320962E+00</totfact>
</mgrwt>
</event>
<event>
 6    1  0.2922874E-003  0.6760607E+03  0.7818608E-02  0.9759071E-01
          1   -1    0    0  502    0  0.00000000000E+00  0.00000000000E+00  0.11603396667E+03  0.11603396667E+03  0.00000000000E+00 0.  1.
         13   -1    0    0    0    0 -0.00000000000E+00 -0.00000000000E+00 -0.10000000000E+04  0.10000000000E+04  0.00000000000E+00 0.  1.
    9000005    2    1    2  501    0  0.13148913565E+00  0.60247941663E-01 -0.88573220237E+03  0.11142618853E+04  0.67606064363E+03 0.  0.
         13    1    3    3    0    0  0.10140823744E+03  0.13607894834E+03 -0.92479607931E+03  0.94023874581E+03  0.00000000000E+00 0.  1.
          3    1    3    3  501    0 -0.10127674831E+03 -0.13601870040E+03  0.39063876945E+02  0.17402313952E+03  0.00000000000E+00 0.  1.
         21    1    1    2  502  501 -0.13148913565E+00 -0.60247941663E-01  0.17661690365E+01  0.17720813392E+01  0.00000000000E+00 0. -1.
<mgrwt>
<rscale>  1 0.67606066E+03</rscale>
<asrwt>0</asrwt>
<pdfrwt beam="1">  1        1 0.42194259E+00 0.67606066E+03</pdfrwt>
<pdfrwt beam="2">0</pdfrwt>
<totfact> 0.10611647E+00</totfact>
</mgrwt>
</event>
<event>
 6    1  0.2922874E-003  0.6479094E+03  0.7818608E-02  0.9810710E-01
          1   -1    0    0  502    0  0.00000000000E+00  0.00000000000E+00  0.10705312489E+03  0.10705312489E+03  0.00000000000E+00 0.  1.
         13   -1    0    0    0    0 -0.00000000000E+00 -0.00000000000E+00 -0.10000000000E+04  0.10000000000E+04  0.00000000000E+00 0.  1.
    9000005    2    1    2  501    0  0.18971209560E+00  0.11228620533E+00 -0.89504698223E+03  0.11049414789E+04  0.64790934767E+03 0.  0.
         13    1    3    3    0    0  0.28974478642E+02 -0.30992717046E+03 -0.29470719344E+03  0.42865685725E+03  0.00000000000E+00 0.  1.
          1    1    3    3  501    0 -0.28784766546E+02  0.31003945667E+03 -0.60033978879E+03  0.67628462165E+03  0.00000000000E+00 0.  1.
         21    1    1    2  502  501 -0.18971209560E+00 -0.11228620533E+00  0.21001071152E+01  0.21116459851E+01  0.00000000000E+00 0. -1.
<mgrwt>
<rscale>  1 0.64790939E+03</rscale>
<asrwt>0</asrwt>
<pdfrwt beam="1">  1        1 0.38928491E+00 0.64790939E+03</pdfrwt>
<pdfrwt beam="2">0</pdfrwt>
<totfact> 0.14935133E+00</totfact>
</mgrwt>
</event>
<event>
 6    1  0.2922874E-003  0.6467481E+03  0.7818608E-02  0.9812900E-01
          1   -1    0    0  502    0  0.00000000000E+00  0.00000000000E+00  0.10457322715E+03  0.10457322715E+03  0.00000000000E+00 0.  1.
         13   -1    0    0    0    0 -0.00000000000E+00 -0.00000000000E+00 -0.10000000000E+04  0.10000000000E+04  0.00000000000E+00 0.  1.
    9000005    2    1    2  501    0  0.12220047122E-03 -0.20918700008E-03 -0.89542921708E+03  0.11045707709E+04  0.64674810028E+03 0.  0.
         13    1    3    3    0    0  0.19731382159E+03 -0.24249155909E+02 -0.88330895098E+03  0.90540348389E+03  0.00000000000E+00 0.  1.
          3    1    3    3  501    0 -0.19731369939E+03  0.24248946722E+02 -0.12120266103E+02  0.19916728706E+03  0.00000000000E+00 0.  1.
         21    1    1    2  502  501 -0.12220047125E-03  0.20918700009E-03  0.24442349527E-02  0.24562118517E-02  0.00000000000E+00 0.  1.
<mgrwt>
<rscale>  1 0.64674810E+03</rscale>
<asrwt>0</asrwt>
<pdfrwt beam="1">  1        1 0.38026708E+00 0.64674810E+03</pdfrwt>
<pdfrwt beam="2">0</pdfrwt>
<totfact> 0.16375039E+00</totfact>
</mgrwt>
</event>
<event>
 6    1  0.2922874E-003  0.6227694E+03  0.7818608E-02  0.9859261E-01
          1   -1    0    0  502    0  0.00000000000E+00  0.00000000000E+00  0.96966544421E+02  0.96966544421E+02  0.00000000000E+00 0.  1.
         13   -1    0    0    0    0 -0.00000000000E+00 -0.00000000000E+00 -0.10000000000E+04  0.10000000000E+04  0.00000000000E+00 0.  1.
    9000005    2    1    2  501    0 -0.15344894361E-01  0.39852408519E-02 -0.90302544169E+03  0.10969487801E+04  0.62276936150E+03 0.  0.
         13    1    3    3    0    0  0.84245121213E+02  0.85801880960E+02  0.54415242621E+02  0.13198568807E+03  0.00000000000E+00 0.  1.
          3    1    3    3  501    0 -0.84260466108E+02 -0.85797895719E+02 -0.95744068431E+03  0.96496309205E+03  0.00000000000E+00 0.  1.
         21    1    1    2  502  501  0.15344894361E-01 -0.39852408519E-02 -0.80138918433E-02  0.17764301002E-01  0.00000000000E+00 0. -1.
<mgrwt>
<rscale>  1 0.62276936E+03</rscale>
<asrwt>0</asrwt>
<pdfrwt beam="1">  1        1 0.35260636E+00 0.62276936E+03</pdfrwt>
<pdfrwt beam="2">0</pdfrwt>
<totfact> 0.21746288E+00</totfact>
</mgrwt>
</event>
<event>
 6    1  0.2922874E-003  0.6379353E+03  0.7818608E-02  0.9829685E-01
          1   -1    0    0  502    0  0.00000000000E+00  0.00000000000E+00  0.10175699705E+03  0.10175699705E+03  0.00000000000E+00 0.  1.
         13   -1    0    0    0    0 -0.00000000000E+00 -0.00000000000E+00 -0.10000000000E+04  0.10000000000E+04  0.00000000000E+00 0.  1.
    9000005    2    1    2  501    0  0.31641621669E-03 -0.19561633792E-04 -0.89825962065E+03  0.11017403763E+04  0.63793534998E+03 0.  0.
         13    1    3    3    0    0  0.13610048731E+03 -0.28305843572E+03 -0.35304984608E+03  0.47253530502E+03  0.00000000000E+00 0.  1.
          1    1    3    3  501    0 -0.13610017090E+03  0.28305841616E+03 -0.54520977457E+03  0.62920507131E+03  0.00000000000E+00 0.  1.
         21    1    1    2  502  501 -0.31641621667E-03  0.19561633799E-04  0.16617694703E-01  0.16620718370E-01  0.00000000000E+00 0.  1.
<mgrwt>
<rscale>  1 0.63793535E+03</rscale>
<asrwt>0</asrwt>
<pdfrwt beam="1">  1        1 0.37002622E+00 0.63793535E+03</pdfrwt>
<pdfrwt beam="2">0</pdfrwt>
<totfact> 0.18195534E+00</totfact>
</mgrwt>
</event>
<event>
 6    1  0.2922874E-003  0.4912970E+03  0.7818608E-02  0.1016076E+00
          1   -1    0    0  502    0  0.00000000000E+00  0.00000000000E+00  0.60343945613E+02  0.60343945613E+02  0.00000000000E+00 0.  1.
         13   -1    0    0    0    0 -0.00000000000E+00 -0.00000000000E+00 -0.10000000000E+04  0.10000000000E+04  0.00000000000E+00 0.  1.
    9000005    2    1    2  501    0  0.81244583339E-03 -0.18698093402E-04 -0.93965658319E+03  0.10603429761E+04  0.49129699014E+03 0.  0.
         13    1    3    3    0    0  0.18028975970E+03 -0.19210275305E+02 -0.11211910933E+03  0.21317628106E+03  0.00000000000E+00 0.  1.
          3    1    3    3  501    0 -0.18028894725E+03  0.19210256607E+02 -0.82753747386E+03  0.84716669499E+03  0.00000000000E+00 0.  1.
         21    1    1    2  502  501 -0.81244583339E-03  0.18698093401E-04  0.52880479034E-03  0.96956297226E-03  0.00000000000E+00 0.  1.
<mgrwt>
<rscale>  1 0.49129699E+03</rscale>
<asrwt>0</asrwt>
<pdfrwt beam="1">  1        1 0.21943299E+00 0.49129699E+03</pdfrwt>
<pdfrwt beam="2">0</pdfrwt>
<totfact> 0.84230425E+00</totfact>
</mgrwt>
</event>
<event>
 6    1  0.2922874E-003  0.4914548E+03  0.7818608E-02  0.1016034E+00
          1   -1    0    0  502    0  0.00000000000E+00  0.00000000000E+00  0.60383109362E+02  0.60383109362E+02  0.00000000000E+00 0.  1.
         13   -1    0    0    0    0 -0.00000000000E+00 -0.00000000000E+00 -0.10000000000E+04  0.10000000000E+04  0.00000000000E+00 0.  1.
    9000005    2    1    2  501    0 -0.64720190989E-03 -0.50911658528E-03 -0.93961789851E+03  0.10603818079E+04  0.49145476216E+03 0.  0.
         13    1    3    3    0    0  0.17836873358E+03  0.16882211063E+03 -0.45235471369E+03  0.51472429237E+03  0.00000000000E+00 0.  1.
          1    1    3    3  501    0 -0.17836938078E+03 -0.16882261975E+03 -0.48726318482E+03  0.54565751550E+03  0.00000000000E+00 0.  1.
         21    1    1    2  502  501  0.64720190989E-03  0.50911658527E-03  0.10078767793E-02  0.13014936081E-02  0.00000000000E+00 0.  1.
<mgrwt>
<rscale>  1 0.49145476E+03</rscale>
<asrwt>0</asrwt>
<pdfrwt beam="1">  1        1 0.21957541E+00 0.49145476E+03</pdfrwt>
<pdfrwt beam="2">0</pdfrwt>
<totfact> 0.84105742E+00</totfact>
</mgrwt>
</event>
<event>
 6    1  0.2922874E-003  0.6463558E+03  0.7818608E-02  0.9813641E-01
          1   -1    0    0  502    0  0.00000000000E+00  0.00000000000E+00  0.10445076542E+03  0.10445076542E+03  0.00000000000E+00 0.  1.
         13   -1    0    0    0    0 -0.00000000000E+00 -0.00000000000E+00 -0.10000000000E+04  0.10000000000E+04  0.00000000000E+00 0.  1.
    9000005    2    1    2  501    0 -0.36062167933E-03 -0.48600696874E-03 -0.89555604628E+03  0.11044439269E+04  0.64635575005E+03 0.  0.
         13    1    3    3    0    0  0.18184213224E+03  0.21287291252E+03 -0.17192403887E+03  0.32854118933E+03  0.00000000000E+00 0.  1.
          1    1    3    3  501    0 -0.18184249286E+03 -0.21287339853E+03 -0.72363200741E+03  0.77590273756E+03  0.00000000000E+00 0.  1.
         21    1    1    2  502  501  0.36062167936E-03  0.48600696876E-03  0.68116985243E-02  0.68385296340E-02  0.00000000000E+00 0. -1.
<mgrwt>
<rscale>  1 0.64635575E+03</rscale>
<asrwt>0</asrwt>
<pdfrwt beam="1">  1        1 0.37982177E+00 0.64635575E+03</pdfrwt>
<pdfrwt beam="2">0</pdfrwt>
<totfact> 0.16450479E+00</totfact>
</mgrwt>
</event>
<event>
 6    1  0.2922874E-003  0.6558009E+03  0.7818608E-02  0.9795955E-01
          3   -1    0    0  502    0  0.00000000000E+00  0.00000000000E+00  0.10754087718E+03  0.10754087718E+03  0.00000000000E+00 0.  1.
         13   -1    0    0    0    0 -0.00000000000E+00 -0.00000000000E+00 -0.10000000000E+04  0.10000000000E+04  0.00000000000E+00 0.  1.
    9000005    2    1    2  501    0  0.74718539068E-04 -0.85233230619E-02 -0.89248038649E+03  0.11075179688E+04  0.65580089263E+03 0.  0.
         13    1    3    3    0    0 -0.16698913259E+02 -0.77581673894E+02  0.91056606967E+02  0.12078524538E+03  0.00000000000E+00 0.  1.
          1    1    3    3  501    0  0.16698987978E+02  0.77573150571E+02 -0.98353699345E+03  0.98673272338E+03  0.00000000000E+00 0.  1.
         21    1    1    2  502  501 -0.74718539068E-04  0.85233230619E-02  0.21263665716E-01  0.22908428549E-01  0.00000000000E+00 0. -1.
<mgrwt>
<rscale>  1 0.65580089E+03</rscale>
<asrwt>0</asrwt>
<pdfrwt beam="1">  1        3 0.39105856E+00 0.65580089E+03</pdfrwt>
<pdfrwt beam="2">0</pdfrwt>
<totfact> 0.65935135E-02</totfact>
</mgrwt>
</event>
<event>
 6    1  0.2922874E-003  0.6418851E+03  0.7818608E-02  0.9822126E-01
          1   -1    0    0  502    0  0.00000000000E+00  0.00000000000E+00  0.10338919936E+03  0.10338919936E+03  0.00000000000E+00 0.  1.
         13   -1    0    0    0    0 -0.00000000000E+00 -0.00000000000E+00 -0.10000000000E+04  0.10000000000E+04  0.00000000000E+00 0.  1.
    9000005    2    1    2  501    0 -0.76306900150E+00 -0.33237750400E+00 -0.89346163351E+03  0.11001318995E+04  0.64188457911E+03 0.  0.
         13    1    3    3    0    0  0.27347099414E+02 -0.19642271528E+03 -0.14192958647E+02  0.19882451308E+03  0.00000000000E+00 0.  1.
          1    1    3    3  501    0 -0.28110168416E+02  0.19609033778E+03 -0.87926867487E+03  0.90130738638E+03  0.00000000000E+00 0.  1.
         21    1    1    2  502  501  0.76306900150E+00  0.33237750400E+00 -0.31491671239E+01  0.32572999065E+01  0.00000000000E+00 0.  1.
<mgrwt>
<rscale>  1 0.64188512E+03</rscale>
<asrwt>0</asrwt>
<pdfrwt beam="1">  1        1 0.37596152E+00 0.64188512E+03</pdfrwt>
<pdfrwt beam="2">0</pdfrwt>
<totfact> 0.17121811E+00</totfact>
</mgrwt>
</event>
<event>
 6    1  0.2922874E-003  0.6375390E+03  0.7818608E-02  0.9830446E-01
          1   -1    0    0  502    0  0.00000000000E+00  0.00000000000E+00  0.10172012908E+03  0.10172012908E+03  0.00000000000E+00 0.  1.
         13   -1    0    0    0    0 -0.00000000000E+00 -0.00000000000E+00 -0.10000000000E+04  0.10000000000E+04  0.00000000000E+00 0.  1.
    9000005    2    1    2  501    0 -0.32765976746E-01 -0.84100973851E-01 -0.89836444797E+03  0.11015964365E+04  0.63753903359E+03 0.  0.
         13    1    3    3    0    0  0.16139023927E+02  0.18347073510E+03 -0.89865066215E+03  0.91733036105E+03  0.00000000000E+00 0.  1.
          1    1    3    3  501    0 -0.16171789903E+02 -0.18355483607E+03  0.28621418180E+00  0.18426607543E+03  0.00000000000E+00 0.  1.
         21    1    1    2  502  501  0.32765976746E-01  0.84100973851E-01  0.84577048735E-01  0.12369260369E+00  0.00000000000E+00 0. -1.
<mgrwt>
<rscale>  1 0.63753904E+03</rscale>
<asrwt>0</asrwt>
<pdfrwt beam="1">  1        1 0.36989216E+00 0.63753904E+03</pdfrwt>
<pdfrwt beam="2">0</pdfrwt>
<totfact> 0.18221535E+00</totfact>
</mgrwt>
</event>
<event>
 6    1  0.2922874E-003  0.6599847E+03  0.7818608E-02  0.9788222E-01
          1   -1    0    0  502    0  0.00000000000E+00  0.00000000000E+00  0.10898622325E+03  0.10898622325E+03  0.00000000000E+00 0.  1.
         13   -1    0    0    0    0 -0.00000000000E+00 -0.00000000000E+00 -0.10000000000E+04  0.10000000000E+04  0.00000000000E+00 0.  1.
    9000005    2    1    2  501    0  0.13436474859E-02  0.14025544793E-02 -0.89110505350E+03  0.11088949258E+04  0.65998465146E+03 0.  0.
         13    1    3    3    0    0 -0.19211207576E+03  0.21804376581E+03 -0.18285857060E+03  0.34334733187E+03  0.00000000000E+00 0.  1.
          3    1    3    3  501    0  0.19211341941E+03 -0.21804236325E+03 -0.70824648290E+03  0.76554759397E+03  0.00000000000E+00 0.  1.
         21    1    1    2  502  501 -0.13436474859E-02 -0.14025544792E-02  0.91276753631E-01  0.91297416727E-01  0.00000000000E+00 0. -1.
<mgrwt>
<rscale>  1 0.65998465E+03</rscale>
<asrwt>0</asrwt>
<pdfrwt beam="1">  1        1 0.39631437E+00 0.65998465E+03</pdfrwt>
<pdfrwt beam="2">0</pdfrwt>
<totfact> 0.13867956E+00</totfact>
</mgrwt>
</event>
<event>
 6    1  0.2922874E-003  0.6569367E+03  0.7818608E-02  0.9793849E-01
          1   -1    0    0  502    0  0.00000000000E+00  0.00000000000E+00  0.10789233723E+03  0.10789233723E+03  0.00000000000E+00 0.  1.
         13   -1    0    0    0    0 -0.00000000000E+00 -0.00000000000E+00 -0.10000000000E+04  0.10000000000E+04  0.00000000000E+00 0.  1.
    9000005    2    1    2  501    0 -0.16028625921E-02  0.63934495495E-03 -0.89210750046E+03  0.11078906039E+04  0.65693667725E+03 0.  0.
         13    1    3    3    0    0 -0.15340348415E+03  0.26664976325E+03 -0.25187738085E+03  0.39758890852E+03  0.00000000000E+00 0.  1.
          3    1    3    3  501    0  0.15340188129E+03 -0.26664912391E+03 -0.64023011961E+03  0.71030169542E+03  0.00000000000E+00 0.  1.
         21    1    1    2  502  501  0.16028625921E-02 -0.63934495497E-03 -0.16231426462E-03  0.17332848529E-02  0.00000000000E+00 0.  1.
<mgrwt>
<rscale>  1 0.65693668E+03</rscale>
<asrwt>0</asrwt>
<pdfrwt beam="1">  1        1 0.39233660E+00 0.65693668E+03</pdfrwt>
<pdfrwt beam="2">0</pdfrwt>
<totfact> 0.14452426E+00</totfact>
</mgrwt>
</event>
<event>
 6    1  0.2922874E-003  0.6518494E+03  0.7818608E-02  0.9803315E-01
          1   -1    0    0  502    0  0.00000000000E+00  0.00000000000E+00  0.10623249340E+03  0.10623249340E+03  0.00000000000E+00 0.  1.
         13   -1    0    0    0    0 -0.00000000000E+00 -0.00000000000E+00 -0.10000000000E+04  0.10000000000E+04  0.00000000000E+00 0.  1.
    9000005    2    1    2  501    0  0.74984026526E-04 -0.16175548251E-03 -0.89377309802E+03  0.11062268991E+04  0.65184937035E+03 0.  0.
         13    1    3    3    0    0 -0.29602278808E+03  0.13148467151E+03 -0.38548323321E+03  0.50350276364E+03  0.00000000000E+00 0.  1.
          3    1    3    3  501    0  0.29602286307E+03 -0.13148483327E+03 -0.50828986482E+03  0.60272413550E+03  0.00000000000E+00 0.  1.
         21    1    1    2  502  501 -0.74984026541E-04  0.16175548253E-03  0.55914269227E-02  0.55942687164E-02  0.00000000000E+00 0.  1.
<mgrwt>
<rscale>  1 0.65184937E+03</rscale>
<asrwt>0</asrwt>
<pdfrwt beam="1">  1        1 0.38630079E+00 0.65184937E+03</pdfrwt>
<pdfrwt beam="2">0</pdfrwt>
<totfact> 0.15385381E+00</totfact>
</mgrwt>
</event>
<event>
 6    1  0.2922874E-003  0.6518881E+03  0.7818608E-02  0.9803243E-01
          1   -1    0    0  502    0  0.00000000000E+00  0.00000000000E+00  0.10624402844E+03  0.10624402844E+03  0.00000000000E+00 0.  1.
         13   -1    0    0    0    0 -0.00000000000E+00 -0.00000000000E+00 -0.10000000000E+04  0.10000000000E+04  0.00000000000E+00 0.  1.
    9000005    2    1    2  501    0 -0.14721007670E-03 -0.21847760777E-04 -0.89376046709E+03  0.11062395305E+04  0.65188812400E+03 0.  0.
         13    1    3    3    0    0 -0.26440157418E+03 -0.82028842343E+02 -0.15490819386E+03  0.31722779186E+03  0.00000000000E+00 0.  1.
          1    1    3    3  501    0  0.26440142697E+03  0.82028820495E+02 -0.73885227323E+03  0.78901173859E+03  0.00000000000E+00 0.  1.
         21    1    1    2  502  501  0.14721007669E-03  0.21847760781E-04  0.44955282013E-02  0.44979908781E-02  0.00000000000E+00 0.  1.
<mgrwt>
<rscale>  1 0.65188812E+03</rscale>
<asrwt>0</asrwt>
<pdfrwt beam="1">  1        1 0.38634274E+00 0.65188812E+03</pdfrwt>
<pdfrwt beam="2">0</pdfrwt>
<totfact> 0.15378695E+00</totfact>
</mgrwt>
</event>
<event>
 6    1  0.2922874E-003  0.6488306E+03  0.7818608E-02  0.9808976E-01
          1   -1    0    0  502    0  0.00000000000E+00  0.00000000000E+00  0.10544152471E+03  0.10544152471E+03  0.00000000000E+00 0.  1.
         13   -1    0    0    0    0 -0.00000000000E+00 -0.00000000000E+00 -0.10000000000E+04  0.10000000000E+04  0.00000000000E+00 0.  1.
    9000005    2    1    2  501    0  0.15005093522E+00  0.54766624680E+00 -0.89337259230E+03  0.11041266969E+04  0.64883037209E+03 0.  0.
         13    1    3    3    0    0 -0.18732440077E+03  0.23712199851E+03 -0.64846489547E+03  0.71541875426E+03  0.00000000000E+00 0.  1.
          3    1    3    3  501    0  0.18747445170E+03 -0.23657433226E+03 -0.24490769683E+03  0.38870794267E+03  0.00000000000E+00 0.  1.
         21    1    1    2  502  501 -0.15005093522E+00 -0.54766624680E+00 -0.11858829969E+01  0.13148277771E+01  0.00000000000E+00 0.  1.
<mgrwt>
<rscale>  1 0.64883062E+03</rscale>
<asrwt>0</asrwt>
<pdfrwt beam="1">  1        1 0.38342453E+00 0.64883062E+03</pdfrwt>
<pdfrwt beam="2">0</pdfrwt>
<totfact> 0.15851551E+00</totfact>
</mgrwt>
</event>
<event>
 6    1  0.2922874E-003  0.6422720E+03  0.7818608E-02  0.9821389E-01
          1   -1    0    0  502    0  0.00000000000E+00  0.00000000000E+00  0.10326482061E+03  0.10326482061E+03  0.00000000000E+00 0.  1.
         13   -1    0    0    0    0 -0.00000000000E+00 -0.00000000000E+00 -0.10000000000E+04  0.10000000000E+04  0.00000000000E+00 0.  1.
    9000005    2    1    2  501    0  0.12737672765E+00  0.18682112121E+00 -0.89675976253E+03  0.11030373755E+04  0.64227200535E+03 0.  0.
         13    1    3    3    0    0 -0.21485763633E+03  0.17808346118E+03 -0.17545748851E+03  0.32964049101E+03  0.00000000000E+00 0.  1.
          3    1    3    3  501    0  0.21498501306E+03 -0.17789664006E+03 -0.72130227402E+03  0.77339688446E+03  0.00000000000E+00 0.  1.
         21    1    1    2  502  501 -0.12737672765E+00 -0.18682112121E+00  0.24583134193E-01  0.22744514188E+00  0.00000000000E+00 0.  1.
<mgrwt>
<rscale>  1 0.64227205E+03</rscale>
<asrwt>0</asrwt>
<pdfrwt beam="1">  1        1 0.37550923E+00 0.64227205E+03</pdfrwt>
<pdfrwt beam="2">0</pdfrwt>
<totfact> 0.17199285E+00</totfact>
</mgrwt>
</event>
<event>
 6    1  0.2922874E-003  0.6968108E+03  0.7818608E-02  0.9722702E-01
          1   -1    0    0  502    0  0.00000000000E+00  0.00000000000E+00  0.12664660216E+03  0.12664660216E+03  0.00000000000E+00 0.  1.
         13   -1    0    0    0    0 -0.00000000000E+00 -0.00000000000E+00 -0.10000000000E+04  0.10000000000E+04  0.00000000000E+00 0.  1.
    9000005    2    1    2  501    0  0.89508481932E+01 -0.16532343826E+01 -0.87369656419E+03  0.11175378904E+04  0.69675131811E+03 0.  0.
         13    1    3    3    0    0  0.75674382884E+02  0.20303503054E+03 -0.87583345781E+03  0.90223837298E+03  0.00000000000E+00 0.  1.
          3    1    3    3  501    0 -0.66723534691E+02 -0.20468826492E+03  0.21368936210E+01  0.21529951740E+03  0.00000000000E+00 0.  1.
         21    1    1    2  502  501 -0.89508481932E+01  0.16532343826E+01  0.34316635473E+00  0.91087117886E+01  0.00000000000E+00 0.  1.
<mgrwt>
<rscale>  1 0.69681077E+03</rscale>
<asrwt>0</asrwt>
<pdfrwt beam="1">  1        1 0.46053407E+00 0.69681077E+03</pdfrwt>
<pdfrwt beam="2">0</pdfrwt>
<totfact> 0.70336953E-01</totfact>
</mgrwt>
</event>
<event>
 6    1  0.2922874E-003  0.6234224E+03  0.7818608E-02  0.9857969E-01
          1   -1    0    0  502    0  0.00000000000E+00  0.00000000000E+00  0.97306135506E+02  0.97306135506E+02  0.00000000000E+00 0.  1.
         13   -1    0    0    0    0 -0.00000000000E+00 -0.00000000000E+00 -0.10000000000E+04  0.10000000000E+04  0.00000000000E+00 0.  1.
    9000005    2    1    2  501    0  0.21817757489E+00 -0.39760273334E-01 -0.90273493356E+03  0.10970805939E+04  0.62342234491E+03 0.  0.
         13    1    3    3    0    0 -0.11840565161E+03 -0.24916574198E+03 -0.70661521078E+03  0.75855686762E+03  0.00000000000E+00 0.  1.
          1    1    3    3  501    0  0.11862382919E+03  0.24912598170E+03 -0.19611972278E+03  0.33852372631E+03  0.00000000000E+00 0.  1.
         21    1    1    2  502  501 -0.21817757489E+00  0.39760273334E-01  0.41069068050E-01  0.22554157459E+00  0.00000000000E+00 0.  1.
<mgrwt>
<rscale>  1 0.62342238E+03</rscale>
<asrwt>0</asrwt>
<pdfrwt beam="1">  1        1 0.35384124E+00 0.62342238E+03</pdfrwt>
<pdfrwt beam="2">0</pdfrwt>
<totfact> 0.21475699E+00</totfact>
</mgrwt>
</event>
<event>
 6    1  0.2922874E-003  0.6503132E+03  0.7818608E-02  0.9806192E-01
          1   -1    0    0  502    0  0.00000000000E+00  0.00000000000E+00  0.10573062404E+03  0.10573062404E+03  0.00000000000E+00 0.  1.
         13   -1    0    0    0    0 -0.00000000000E+00 -0.00000000000E+00 -0.10000000000E+04  0.10000000000E+04  0.00000000000E+00 0.  1.
    9000005    2    1    2  501    0  0.18072658816E-03  0.38590322485E-02 -0.89427205656E+03  0.11057259219E+04  0.65031323464E+03 0.  0.
         13    1    3    3    0    0  0.22244983465E+03 -0.73636894097E+02 -0.83043950483E+03  0.86286504871E+03  0.00000000000E+00 0.  1.
          3    1    3    3  501    0 -0.22244965392E+03  0.73640753129E+02 -0.63832551725E+02  0.24286087316E+03  0.00000000000E+00 0.  1.
         21    1    1    2  502  501 -0.18072658814E-03 -0.38590322485E-02  0.26805990507E-02  0.47021700592E-02  0.00000000000E+00 0. -1.
<mgrwt>
<rscale>  1 0.65031323E+03</rscale>
<asrwt>0</asrwt>
<pdfrwt beam="1">  1        1 0.38447581E+00 0.65031323E+03</pdfrwt>
<pdfrwt beam="2">0</pdfrwt>
<totfact> 0.15678534E+00</totfact>
</mgrwt>
</event>
<event>
 6    1  0.2922874E-003  0.6224923E+03  0.7818608E-02  0.9859810E-01
          1   -1    0    0  502    0  0.00000000000E+00  0.00000000000E+00  0.97205606592E+02  0.97205606592E+02  0.00000000000E+00 0.  1.
         13   -1    0    0    0    0 -0.00000000000E+00 -0.00000000000E+00 -0.10000000000E+04  0.10000000000E+04  0.00000000000E+00 0.  1.
    9000005    2    1    2  501    0 -0.10690037873E-01  0.50714196067E-03 -0.90312574538E+03  0.10968740818E+04  0.62249228052E+03 0.  0.
         13    1    3    3    0    0  0.13245397264E+03 -0.28136609104E+03 -0.47396379607E+03  0.56687971567E+03  0.00000000000E+00 0.  1.
          1    1    3    3  501    0 -0.13246466268E+03  0.28136659818E+03 -0.42916194931E+03  0.52999436616E+03  0.00000000000E+00 0.  1.
         21    1    1    2  502  501  0.10690037873E-01 -0.50714196066E-03  0.33135197451E+00  0.33152475792E+00  0.00000000000E+00 0.  1.
<mgrwt>
<rscale>  1 0.62249228E+03</rscale>
<asrwt>0</asrwt>
<pdfrwt beam="1">  1        1 0.35347568E+00 0.62249228E+03</pdfrwt>
<pdfrwt beam="2">0</pdfrwt>
<totfact> 0.21558313E+00</totfact>
</mgrwt>
</event>
<event>
 6    1  0.2922874E-003  0.6621281E+03  0.7818608E-02  0.9784284E-01
          1   -1    0    0  502    0  0.00000000000E+00  0.00000000000E+00  0.10960436221E+03  0.10960436221E+03  0.00000000000E+00 0.  1.
         13   -1    0    0    0    0 -0.00000000000E+00 -0.00000000000E+00 -0.10000000000E+04  0.10000000000E+04  0.00000000000E+00 0.  1.
    9000005    2    1    2  501    0  0.81062874887E-03 -0.42614680948E-03 -0.89039633390E+03  0.11096032119E+04  0.66212812684E+03 0.  0.
         13    1    3    3    0    0  0.26649530933E+03  0.29004040058E+02 -0.11963053803E+03  0.29355144330E+03  0.00000000000E+00 0.  1.
          3    1    3    3  501    0 -0.26649449870E+03 -0.29004466204E+02 -0.77076579587E+03  0.81605176857E+03  0.00000000000E+00 0.  1.
         21    1    1    2  502  501 -0.81062874888E-03  0.42614680949E-03  0.69611571372E-03  0.11503465385E-02  0.00000000000E+00 0.  1.
<mgrwt>
<rscale>  1 0.66212813E+03</rscale>
<asrwt>0</asrwt>
<pdfrwt beam="1">  1        1 0.39856216E+00 0.66212813E+03</pdfrwt>
<pdfrwt beam="2">0</pdfrwt>
<totfact> 0.13546580E+00</totfact>
</mgrwt>
</event>
<event>
 6    1  0.2922874E-003  0.6830438E+03  0.7818608E-02  0.9746677E-01
          1   -1    0    0  502    0  0.00000000000E+00  0.00000000000E+00  0.11792018004E+03  0.11792018004E+03  0.00000000000E+00 0.  1.
         13   -1    0    0    0    0 -0.00000000000E+00 -0.00000000000E+00 -0.10000000000E+04  0.10000000000E+04  0.00000000000E+00 0.  1.
    9000005    2    1    2  501    0 -0.18624716625E-01  0.26587100934E-02 -0.88336271680E+03  0.11166371453E+04  0.68304379390E+03 0.  0.
         13    1    3    3    0    0  0.11579198370E+03  0.30755848927E+02  0.81154264671E+02  0.14470563364E+03  0.00000000000E+00 0.  1.
          3    1    3    3  501    0 -0.11581060842E+03 -0.30753190217E+02 -0.96451698147E+03  0.97193151162E+03  0.00000000000E+00 0.  1.
         21    1    1    2  502  501  0.18624716625E-01 -0.26587100934E-02  0.12828968406E+01  0.12830347822E+01  0.00000000000E+00 0.  1.
<mgrwt>
<rscale>  1 0.68304379E+03</rscale>
<asrwt>0</asrwt>
<pdfrwt beam="1">  1        1 0.42880156E+00 0.68304379E+03</pdfrwt>
<pdfrwt beam="2">0</pdfrwt>
<totfact> 0.98656996E-01</totfact>
</mgrwt>
</event>
<event>
 6    1  0.2922874E-003  0.6631807E+03  0.7818608E-02  0.9782356E-01
          1   -1    0    0  502    0  0.00000000000E+00  0.00000000000E+00  0.10995273474E+03  0.10995273474E+03  0.00000000000E+00 0.  1.
         13   -1    0    0    0    0 -0.00000000000E+00 -0.00000000000E+00 -0.10000000000E+04  0.10000000000E+04  0.00000000000E+00 0.  1.
    9000005    2    1    2  501    0 -0.99730083198E-03 -0.20382065017E-03 -0.89004727504E+03  0.11099517168E+04  0.66318071578E+03 0.  0.
         13    1    3    3    0    0  0.21786659415E+03 -0.10196505934E+03 -0.63038318095E+02  0.24866957136E+03  0.00000000000E+00 0.  1.
          1    1    3    3  501    0 -0.21786759145E+03  0.10196485552E+03 -0.82700895694E+03  0.86128214542E+03  0.00000000000E+00 0.  1.
         21    1    1    2  502  501  0.99730083199E-03  0.20382065017E-03  0.97803281711E-05  0.10179624068E-02  0.00000000000E+00 0. -1.
<mgrwt>
<rscale>  1 0.66318072E+03</rscale>
<asrwt>0</asrwt>
<pdfrwt beam="1">  1        1 0.39982897E+00 0.66318072E+03</pdfrwt>
<pdfrwt beam="2">0</pdfrwt>
<totfact> 0.13368961E+00</totfact>
</mgrwt>
</event>
<event>
 6    1  0.2922874E-003  0.6498621E+03  0.7818608E-02  0.9807038E-01
          1   -1    0    0  502    0  0.00000000000E+00  0.00000000000E+00  0.10819557101E+03  0.10819557101E+03  0.00000000000E+00 0.  1.
         13   -1    0    0    0    0 -0.00000000000E+00 -0.00000000000E+00 -0.10000000000E+04  0.10000000000E+04  0.00000000000E+00 0.  1.
    9000005    2    1    2  501    0 -0.35613214744E-01  0.44356436809E-01 -0.89441945717E+03  0.11055799242E+04  0.64986213939E+03 0.  0.
         13    1    3    3    0    0 -0.66092342263E+02  0.23325220989E+03 -0.81534511557E+03  0.85062474018E+03  0.00000000000E+00 0.  1.
          3    1    3    3  501    0  0.66056729049E+02 -0.23320785345E+03 -0.79074341602E+02  0.25495518403E+03  0.00000000000E+00 0.  1.
         21    1    1    2  502  501  0.35613214744E-01 -0.44356436809E-01  0.26150281845E+01  0.26156468035E+01  0.00000000000E+00 0.  1.
<mgrwt>
<rscale>  1 0.64986214E+03</rscale>
<asrwt>0</asrwt>
<pdfrwt beam="1">  1        1 0.39343927E+00 0.64986214E+03</pdfrwt>
<pdfrwt beam="2">0</pdfrwt>
<totfact> 0.14309278E+00</totfact>
</mgrwt>
</event>
<event>
 6    1  0.2922874E-003  0.6709520E+03  0.7818608E-02  0.9768240E-01
          1   -1    0    0  502    0  0.00000000000E+00  0.00000000000E+00  0.11254436463E+03  0.11254436463E+03  0.00000000000E+00 0.  1.
         13   -1    0    0    0    0 -0.00000000000E+00 -0.00000000000E+00 -0.10000000000E+04  0.10000000000E+04  0.00000000000E+00 0.  1.
    9000005    2    1    2  501    0 -0.28684149536E-03 -0.34885855496E-03 -0.88745558936E+03  0.11125439107E+04  0.67095195807E+03 0.  0.
         13    1    3    3    0    0 -0.22020424097E+02  0.33473835124E+03 -0.43865481312E+03  0.55222523298E+03  0.00000000000E+00 0.  1.
          1    1    3    3  501    0  0.22020137255E+02 -0.33473870010E+03 -0.44880077624E+03  0.56031867767E+03  0.00000000000E+00 0.  1.
         21    1    1    2  502  501  0.28684149536E-03  0.34885855493E-03 -0.46005036194E-04  0.45397885211E-03  0.00000000000E+00 0.  1.
<mgrwt>
<rscale>  1 0.67095196E+03</rscale>
<asrwt>0</asrwt>
<pdfrwt beam="1">  1        1 0.40925310E+00 0.67095196E+03</pdfrwt>
<pdfrwt beam="2">0</pdfrwt>
<totfact> 0.12115083E+00</totfact>
</mgrwt>
</event>
<event>
 6    1  0.2922874E-003  0.6540392E+03  0.7818608E-02  0.9799229E-01
          1   -1    0    0  502    0  0.00000000000E+00  0.00000000000E+00  0.10694299381E+03  0.10694299381E+03  0.00000000000E+00 0.  1.
         13   -1    0    0    0    0 -0.00000000000E+00 -0.00000000000E+00 -0.10000000000E+04  0.10000000000E+04  0.00000000000E+00 0.  1.
    9000005    2    1    2  501    0 -0.28496692984E-04 -0.10855473761E-04 -0.89305817214E+03  0.11069418275E+04  0.65403922708E+03 0.  0.
         13    1    3    3    0    0  0.10681946039E+02 -0.30689850392E+03 -0.25624069070E+03  0.39995010595E+03  0.00000000000E+00 0.  1.
          3    1    3    3  501    0 -0.10681974536E+02  0.30689849306E+03 -0.63681748144E+03  0.70699172151E+03  0.00000000000E+00 0.  1.
         21    1    1    2  502  501  0.28496692984E-04  0.10855473753E-04  0.11659471806E-02  0.11663458881E-02  0.00000000000E+00 0.  1.
<mgrwt>
<rscale>  1 0.65403923E+03</rscale>
<asrwt>0</asrwt>
<pdfrwt beam="1">  1        1 0.38888443E+00 0.65403923E+03</pdfrwt>
<pdfrwt beam="2">0</pdfrwt>
<totfact> 0.14979208E+00</totfact>
</mgrwt>
</event>
<event>
 6    1  0.2922874E-003  0.6565779E+03  0.7818608E-02  0.9794514E-01
          1   -1    0    0  502    0  0.00000000000E+00  0.00000000000E+00  0.10778418295E+03  0.10778418295E+03  0.00000000000E+00 0.  1.
         13   -1    0    0    0    0 -0.00000000000E+00 -0.00000000000E+00 -0.10000000000E+04  0.10000000000E+04  0.00000000000E+00 0.  1.
    9000005    2    1    2  501    0  0.15321651469E-03 -0.43564874147E-04 -0.89222637210E+03  0.11077736267E+04  0.65657787728E+03 0.  0.
         13    1    3    3    0    0 -0.20805083689E+03  0.23435225354E+03 -0.61114313910E+03  0.68680569737E+03  0.00000000000E+00 0.  1.
          1    1    3    3  501    0  0.20805099011E+03 -0.23435229711E+03 -0.28108323300E+03  0.42096792933E+03  0.00000000000E+00 0.  1.
         21    1    1    2  502  501 -0.15321651469E-03  0.43564874163E-04  0.10555047973E-01  0.10556249851E-01  0.00000000000E+00 0.  1.
<mgrwt>
<rscale>  1 0.65657788E+03</rscale>
<asrwt>0</asrwt>
<pdfrwt beam="1">  1        1 0.39194331E+00 0.65657788E+03</pdfrwt>
<pdfrwt beam="2">0</pdfrwt>
<totfact> 0.14511618E+00</totfact>
</mgrwt>
</event>
<event>
 6    1  0.2922874E-003  0.6447894E+03  0.7818608E-02  0.9816606E-01
          1   -1    0    0  502    0  0.00000000000E+00  0.00000000000E+00  0.10393842861E+03  0.10393842861E+03  0.00000000000E+00 0.  1.
         13   -1    0    0    0    0 -0.00000000000E+00 -0.00000000000E+00 -0.10000000000E+04  0.10000000000E+04  0.00000000000E+00 0.  1.
    9000005    2    1    2  501    0  0.14616184203E-03  0.15909535060E-03 -0.89606146198E+03  0.11039381864E+04  0.64478940425E+03 0.  0.
         13    1    3    3    0    0 -0.23564480663E+03 -0.17880681467E+03 -0.66753862790E+03  0.73014256937E+03  0.00000000000E+00 0.  1.
          3    1    3    3  501    0  0.23564495279E+03  0.17880697377E+03 -0.22852283408E+03  0.37379561707E+03  0.00000000000E+00 0.  1.
         21    1    1    2  502  501 -0.14616184204E-03 -0.15909535061E-03 -0.10941657254E-03  0.24217060309E-03  0.00000000000E+00 0. -1.
<mgrwt>
<rscale>  1 0.64478940E+03</rscale>
<asrwt>0</asrwt>
<pdfrwt beam="1">  1        1 0.37795872E+00 0.64478940E+03</pdfrwt>
<pdfrwt beam="2">0</pdfrwt>
<totfact> 0.16769467E+00</totfact>
</mgrwt>
</event>
<event>
 6    1  0.2922874E-003  0.6313534E+03  0.7818608E-02  0.9842411E-01
          1   -1    0    0  502    0  0.00000000000E+00  0.00000000000E+00  0.99657022225E+02  0.99657022225E+02  0.00000000000E+00 0.  1.
         13   -1    0    0    0    0 -0.00000000000E+00 -0.00000000000E+00 -0.10000000000E+04  0.10000000000E+04  0.00000000000E+00 0.  1.
    9000005    2    1    2  501    0  0.54348969499E-03  0.16544953728E-01 -0.90031797985E+03  0.10996270401E+04  0.63135343686E+03 0.  0.
         13    1    3    3    0    0  0.12737142142E+03  0.22363288982E+03 -0.13176332551E+03  0.28913097785E+03  0.00000000000E+00 0.  1.
          1    1    3    3  501    0 -0.12737087793E+03 -0.22361634487E+03 -0.76855465434E+03  0.81049606226E+03  0.00000000000E+00 0.  1.
         21    1    1    2  502  501 -0.54348969500E-03 -0.16544953728E-01 -0.24997921559E-01  0.29982110619E-01  0.00000000000E+00 0. -1.
<mgrwt>
<rscale>  1 0.63135344E+03</rscale>
<asrwt>0</asrwt>
<pdfrwt beam="1">  1        1 0.36238994E+00 0.63135344E+03</pdfrwt>
<pdfrwt beam="2">0</pdfrwt>
<totfact> 0.19677332E+00</totfact>
</mgrwt>
</event>
<event>
 6    1  0.2922874E-003  0.6477607E+03  0.7818608E-02  0.9810990E-01
          1   -1    0    0  502    0  0.00000000000E+00  0.00000000000E+00  0.10572516211E+03  0.10572516211E+03  0.00000000000E+00 0.  1.
         13   -1    0    0    0    0 -0.00000000000E+00 -0.00000000000E+00 -0.10000000000E+04  0.10000000000E+04  0.00000000000E+00 0.  1.
    9000005    2    1    2  501    0  0.27904996039E+00 -0.22068807047E+00 -0.89505900268E+03  0.11048640660E+04  0.64776064983E+03 0.  0.
         13    1    3    3    0    0  0.13947778431E+03  0.19262467491E+03 -0.72521128513E+02  0.24863151808E+03  0.00000000000E+00 0.  1.
          1    1    3    3  501    0 -0.13919873435E+03 -0.19284536298E+03 -0.82253787417E+03  0.85623254792E+03  0.00000000000E+00 0.  1.
         21    1    1    2  502  501 -0.27904996039E+00  0.22068807047E+00  0.78416479500E+00  0.86109612156E+00  0.00000000000E+00 0. -1.
<mgrwt>
<rscale>  1 0.64776075E+03</rscale>
<asrwt>0</asrwt>
<pdfrwt beam="1">  1        1 0.38445595E+00 0.64776075E+03</pdfrwt>
<pdfrwt beam="2">0</pdfrwt>
<totfact> 0.15689103E+00</totfact>
</mgrwt>
</event>
<event>
 6    1  0.2922874E-003  0.6526037E+03  0.7818608E-02  0.9801906E-01
          1   -1    0    0  502    0  0.00000000000E+00  0.00000000000E+00  0.10648561419E+03  0.10648561419E+03  0.00000000000E+00 0.  1.
         13   -1    0    0    0    0 -0.00000000000E+00 -0.00000000000E+00 -0.10000000000E+04  0.10000000000E+04  0.00000000000E+00 0.  1.
    9000005    2    1    2  501    0  0.67456936646E-02 -0.65151353534E-02 -0.89352517734E+03  0.11064713170E+04  0.65260365674E+03 0.  0.
         13    1    3    3    0    0 -0.13845004169E+02  0.21406660435E+03 -0.29882895580E+02  0.21658527809E+03  0.00000000000E+00 0.  1.
          3    1    3    3  501    0  0.13851749862E+02 -0.21407311949E+03 -0.86364228176E+03  0.88988603894E+03  0.00000000000E+00 0.  1.
         21    1    1    2  502  501 -0.67456936646E-02  0.65151353534E-02  0.10791533116E-01  0.14297152118E-01  0.00000000000E+00 0. -1.
<mgrwt>
<rscale>  1 0.65260366E+03</rscale>
<asrwt>0</asrwt>
<pdfrwt beam="1">  1        1 0.38722123E+00 0.65260366E+03</pdfrwt>
<pdfrwt beam="2">0</pdfrwt>
<totfact> 0.15239568E+00</totfact>
</mgrwt>
</event>
<event>
 6    1  0.2922874E-003  0.6377934E+03  0.7818608E-02  0.9829957E-01
          1   -1    0    0  502    0  0.00000000000E+00  0.00000000000E+00  0.10169529641E+03  0.10169529641E+03  0.00000000000E+00 0.  1.
         13   -1    0    0    0    0 -0.00000000000E+00 -0.00000000000E+00 -0.10000000000E+04  0.10000000000E+04  0.00000000000E+00 0.  1.
    9000005    2    1    2  501    0  0.22926548915E-04 -0.40730742512E-06 -0.89830489813E+03  0.11016951005E+04  0.63779338700E+03 0.  0.
         13    1    3    3    0    0 -0.60120606938E+02  0.29320288175E+03 -0.25904393016E+03  0.39583604560E+03  0.00000000000E+00 0.  1.
          1    1    3    3  501    0  0.60120629865E+02 -0.29320288216E+03 -0.63926096798E+03  0.70585905492E+03  0.00000000000E+00 0.  1.
         21    1    1    2  502  501 -0.22926548916E-04  0.40730741430E-06  0.19454496584E-03  0.19589164423E-03  0.00000000000E+00 0.  1.
<mgrwt>
<rscale>  1 0.63779339E+03</rscale>
<asrwt>0</asrwt>
<pdfrwt beam="1">  1        1 0.36980186E+00 0.63779339E+03</pdfrwt>
<pdfrwt beam="2">0</pdfrwt>
<totfact> 0.18237336E+00</totfact>
</mgrwt>
</event>
<event>
 6    1  0.2922874E-003  0.6480538E+03  0.7818608E-02  0.9810438E-01
          1   -1    0    0  502    0  0.00000000000E+00  0.00000000000E+00  0.10499637672E+03  0.10499637672E+03  0.00000000000E+00 0.  1.
         13   -1    0    0    0    0 -0.00000000000E+00 -0.00000000000E+00 -0.10000000000E+04  0.10000000000E+04  0.00000000000E+00 0.  1.
    9000005    2    1    2  501    0  0.14526331365E-02 -0.10873317171E-03 -0.89500637750E+03  0.11049932610E+04  0.64805377175E+03 0.  0.
         13    1    3    3    0    0 -0.10774476443E+03 -0.25862742605E+03 -0.16995338069E+03  0.32769075570E+03  0.00000000000E+00 0.  1.
          1    1    3    3  501    0  0.10774621706E+03  0.25862731731E+03 -0.72505299682E+03  0.77730250530E+03  0.00000000000E+00 0.  1.
         21    1    1    2  502  501 -0.14526331365E-02  0.10873317173E-03  0.27542268834E-02  0.31157232960E-02  0.00000000000E+00 0. -1.
<mgrwt>
<rscale>  1 0.64805377E+03</rscale>
<asrwt>0</asrwt>
<pdfrwt beam="1">  1        1 0.38180581E+00 0.64805377E+03</pdfrwt>
<pdfrwt beam="2">0</pdfrwt>
<totfact> 0.16117041E+00</totfact>
</mgrwt>
</event>
<event>
 6    1  0.2922874E-003  0.5853565E+03  0.7818608E-02  0.9936261E-01
          1   -1    0    0  502    0  0.00000000000E+00  0.00000000000E+00  0.85661632994E+02  0.85661632994E+02  0.00000000000E+00 0.  1.
         13   -1    0    0    0    0 -0.00000000000E+00 -0.00000000000E+00 -0.10000000000E+04  0.10000000000E+04  0.00000000000E+00 0.  1.
    9000005    2    1    2  501    0  0.20207115075E-04  0.96479446370E-05 -0.91433943636E+03  0.10856605634E+04  0.58535651875E+03 0.  0.
         13    1    3    3    0    0  0.94591361679E+01  0.25377819490E+03 -0.18732705187E+03  0.31556975747E+03  0.00000000000E+00 0.  1.
          1    1    3    3  501    0 -0.94591159608E+01 -0.25377818526E+03 -0.72701238449E+03  0.77009080594E+03  0.00000000000E+00 0.  1.
         21    1    1    2  502  501 -0.20207115075E-04 -0.96479446451E-05  0.10693547462E-02  0.10695891658E-02  0.00000000000E+00 0. -1.
<mgrwt>
<rscale>  1 0.58535652E+03</rscale>
<asrwt>0</asrwt>
<pdfrwt beam="1">  1        1 0.31149750E+00 0.58535652E+03</pdfrwt>
<pdfrwt beam="2">0</pdfrwt>
<totfact> 0.33000226E+00</totfact>
</mgrwt>
</event>
<event>
 6    1  0.2922874E-003  0.6468124E+03  0.7818608E-02  0.9812779E-01
          1   -1    0    0  502    0  0.00000000000E+00  0.00000000000E+00  0.10465634415E+03  0.10465634415E+03  0.00000000000E+00 0.  1.
         13   -1    0    0    0    0 -0.00000000000E+00 -0.00000000000E+00 -0.10000000000E+04  0.10000000000E+04  0.00000000000E+00 0.  1.
    9000005    2    1    2  501    0  0.79760345639E-03 -0.42564913668E-03 -0.89540843286E+03  0.11045915608E+04  0.64681237977E+03 0.  0.
         13    1    3    3    0    0 -0.22512966582E+03  0.43261133978E+01 -0.84414127521E+03  0.87365701177E+03  0.00000000000E+00 0.  1.
          3    1    3    3  501    0  0.22513046342E+03 -0.43265390469E+01 -0.51267157645E+02  0.23093454907E+03  0.00000000000E+00 0.  1.
         21    1    1    2  502  501 -0.79760345637E-03  0.42564913668E-03  0.64777013106E-01  0.64783321738E-01  0.00000000000E+00 0. -1.
<mgrwt>
<rscale>  1 0.64681238E+03</rscale>
<asrwt>0</asrwt>
<pdfrwt beam="1">  1        1 0.38056933E+00 0.64681238E+03</pdfrwt>
<pdfrwt beam="2">0</pdfrwt>
<totfact> 0.16324630E+00</totfact>
</mgrwt>
</event>
